 Entering Gaussian System, Link 0=g16
 Input=testopt.gjf
 Output=testopt.log
 Initial command:
 /trinity/shared/software/gaussian/g16_A03/g16/l1.exe "/home/jansea92/qmmm_revision/example/opt/Gau-48949.inp" -scrdir="/home/jansea92/qmmm_revision/example/opt/"
 Entering Link 1 = /trinity/shared/software/gaussian/g16_A03/g16/l1.exe PID=     48950.
  
 Copyright (c) 1988,1990,1992,1993,1995,1998,2003,2009,2016,
            Gaussian, Inc.  All Rights Reserved.
  
 This is part of the Gaussian(R) 16 program.  It is based on
 the Gaussian(R) 09 system (copyright 2009, Gaussian, Inc.),
 the Gaussian(R) 03 system (copyright 2003, Gaussian, Inc.),
 the Gaussian(R) 98 system (copyright 1998, Gaussian, Inc.),
 the Gaussian(R) 94 system (copyright 1995, Gaussian, Inc.),
 the Gaussian 92(TM) system (copyright 1992, Gaussian, Inc.),
 the Gaussian 90(TM) system (copyright 1990, Gaussian, Inc.),
 the Gaussian 88(TM) system (copyright 1988, Gaussian, Inc.),
 the Gaussian 86(TM) system (copyright 1986, Carnegie Mellon
 University), and the Gaussian 82(TM) system (copyright 1983,
 Carnegie Mellon University). Gaussian is a federally registered
 trademark of Gaussian, Inc.
  
 This software contains proprietary and confidential information,
 including trade secrets, belonging to Gaussian, Inc.
  
 This software is provided under written license and may be
 used, copied, transmitted, or stored only in accord with that
 written license.
  
 The following legend is applicable only to US Government
 contracts under FAR:
  
                    RESTRICTED RIGHTS LEGEND
  
 Use, reproduction and disclosure by the US Government is
 subject to restrictions as set forth in subparagraphs (a)
 and (c) of the Commercial Computer Software - Restricted
 Rights clause in FAR 52.227-19.
  
 Gaussian, Inc.
 340 Quinnipiac St., Bldg. 40, Wallingford CT 06492
  
  
 ---------------------------------------------------------------
 Warning -- This program may not be used in any manner that
 competes with the business of Gaussian, Inc. or will provide
 assistance to any competitor of Gaussian, Inc.  The licensee
 of this program is prohibited from giving any competitor of
 Gaussian, Inc. access to this program.  By using this program,
 the user acknowledges that Gaussian, Inc. is engaged in the
 business of creating and licensing software in the field of
 computational chemistry and represents and warrants to the
 licensee that it is not a competitor of Gaussian, Inc. and that
 it will not use this program in any manner prohibited above.
 ---------------------------------------------------------------
  

 Cite this work as:
 Gaussian 16, Revision A.03,
 M. J. Frisch, G. W. Trucks, H. B. Schlegel, G. E. Scuseria, 
 M. A. Robb, J. R. Cheeseman, G. Scalmani, V. Barone, 
 G. A. Petersson, H. Nakatsuji, X. Li, M. Caricato, A. V. Marenich, 
 J. Bloino, B. G. Janesko, R. Gomperts, B. Mennucci, H. P. Hratchian, 
 J. V. Ortiz, A. F. Izmaylov, J. L. Sonnenberg, D. Williams-Young, 
 F. Ding, F. Lipparini, F. Egidi, J. Goings, B. Peng, A. Petrone, 
 T. Henderson, D. Ranasinghe, V. G. Zakrzewski, J. Gao, N. Rega, 
 G. Zheng, W. Liang, M. Hada, M. Ehara, K. Toyota, R. Fukuda, 
 J. Hasegawa, M. Ishida, T. Nakajima, Y. Honda, O. Kitao, H. Nakai, 
 T. Vreven, K. Throssell, J. A. Montgomery, Jr., J. E. Peralta, 
 F. Ogliaro, M. J. Bearpark, J. J. Heyd, E. N. Brothers, K. N. Kudin, 
 V. N. Staroverov, T. A. Keith, R. Kobayashi, J. Normand, 
 K. Raghavachari, A. P. Rendell, J. C. Burant, S. S. Iyengar, 
 J. Tomasi, M. Cossi, J. M. Millam, M. Klene, C. Adamo, R. Cammi, 
 J. W. Ochterski, R. L. Martin, K. Morokuma, O. Farkas, 
 J. B. Foresman, and D. J. Fox, Gaussian, Inc., Wallingford CT, 2016.
 
 ******************************************
 Gaussian 16:  ES64L-G16RevA.03 25-Dec-2016
                 1-Feb-2024 
 ******************************************
 %NPROCSHARED=1
 Will use up to    1 processors via shared memory.
 %MEM=1000MB
 %CHK=testopt.chk
 ----------------------------------------------------------------------
 #P BP86/STO-3G nosymm gfinput gfprint force charge guess=huckel punch=
 derivatives iop(3/33=1,6/7=3) prop(field,read) pop=esp
 ----------------------------------------------------------------------
 1/10=7,18=10,28=-2,30=1,38=1,125=101/1,3;
 2/12=2,15=1,17=6,18=5,29=2,40=1/2;
 3/6=3,11=2,24=110,25=1,30=1,33=1,71=1,74=404/1,2,3;
 4/11=4/1;
 5/5=2,38=5/2;
 6/7=3,8=2,9=2,10=2,14=2,15=9,28=1/1,2;
 7/7=1,16=-2,29=1,30=1/1,2,3,16;
 1/10=7,18=10,28=-2,30=1/3;
 99/10=4,12=1/99;
 Leave Link    1 at Thu Feb  1 10:57:04 2024, MaxMem=   131072000 cpu:               0.0 elap:               0.3
 (Enter /trinity/shared/software/gaussian/g16_A03/g16/l101.exe)
 -----------------
 QM part of step 0
 -----------------
 Symbolic Z-matrix:
 Charge =  1 Multiplicity = 1
 N                     47.9      85.62     31.12 
 H                     47.7      84.87     30.47 
 H                     47.2      86.37     30.9 
 H                     48.77     85.95     31.06 
 C                     47.57     85.15     32.47 
 H                     48.2      84.4      32.67 
 H                     46.63     84.81     32.5 
 H                     47.70545   85.94846   33.18291 
 
 ITRead=  0  0  0  0  0  0  0  0
 MicOpt= -1 -1 -1 -1 -1 -1 -1 -1
 NAtoms=      8 NQM=        8 NQMF=       0 NMMI=      0 NMMIF=      0
                NMic=       0 NMicF=      0.
                    Isotopes and Nuclear Properties:
 (Nuclear quadrupole moments (NQMom) in fm**2, nuclear magnetic moments (NMagM)
  in nuclear magnetons)

  Atom         1           2           3           4           5           6           7           8
 IAtWgt=          14           1           1           1          12           1           1           1
 AtmWgt=  14.0030740   1.0078250   1.0078250   1.0078250  12.0000000   1.0078250   1.0078250   1.0078250
 NucSpn=           2           1           1           1           0           1           1           1
 AtZEff=  -0.0000000  -0.0000000  -0.0000000  -0.0000000  -0.0000000  -0.0000000  -0.0000000  -0.0000000
 NQMom=    2.0440000   0.0000000   0.0000000   0.0000000   0.0000000   0.0000000   0.0000000   0.0000000
 NMagM=    0.4037610   2.7928460   2.7928460   2.7928460   0.0000000   2.7928460   2.7928460   2.7928460
 AtZNuc=   7.0000000   1.0000000   1.0000000   1.0000000   6.0000000   1.0000000   1.0000000   1.0000000
 Background charge distribution read from input stream:
 Point Charges:
 XYZ=   46.9500   86.4400   34.3700 Q=  -49.7861 A=    0.0000 R=    0.0000 C=    0.0000
 XYZ=   48.8600   87.0100   33.3400 Q=  -49.5960 A=    0.0000 R=    0.0000 C=    0.0000
 XYZ=   49.5200   86.7800   32.6200 Q=    0.2681 A=    0.0000 R=    0.0000 C=    0.0000
 XYZ=   49.1400   88.1500   34.2100 Q=   -0.2722 A=    0.0000 R=    0.0000 C=    0.0000
 XYZ=   49.2900   87.7700   35.1300 Q=    0.1304 A=    0.0000 R=    0.0000 C=    0.0000
 XYZ=   50.3800   88.9000   33.7600 Q=    0.1123 A=    0.0000 R=    0.0000 C=    0.0000
 XYZ=   50.5700   89.6400   34.3900 Q=    0.0813 A=    0.0000 R=    0.0000 C=    0.0000
 XYZ=   51.1600   88.2700   33.7400 Q=    0.0813 A=    0.0000 R=    0.0000 C=    0.0000
 XYZ=   50.1800   89.4200   32.5000 Q=   -0.6514 A=    0.0000 R=    0.0000 C=    0.0000
 XYZ=   50.9500   89.8900   32.2200 Q=    0.4474 A=    0.0000 R=    0.0000 C=    0.0000
 XYZ=   47.9500   89.0900   34.2200 Q=    0.8113 A=    0.0000 R=    0.0000 C=    0.0000
 XYZ=   47.7000   89.5800   33.3800 Q=   -0.8132 A=    0.0000 R=    0.0000 C=    0.0000
 XYZ=   47.2900   89.2600   35.2500 Q=   -0.8132 A=    0.0000 R=    0.0000 C=    0.0000
 XYZ=   48.3412   86.1480   32.8242 Q=   -0.4038 A=    0.0000 R=    0.0000 C=    0.0000
 XYZ=   45.5588   86.7320   35.9158 Q=    0.4038 A=    0.0000 R=    0.0000 C=    0.0000
 XYZ=   47.1259   85.8434   33.5449 Q=   -0.4038 A=    0.0000 R=    0.0000 C=    0.0000
 XYZ=   50.5941   88.1766   33.1351 Q=    0.4038 A=    0.0000 R=    0.0000 C=    0.0000
 Pt Chg Charge=           -100.0000 electrons
 Pt Chg Dipole moment (Debye):
    X=         -22999.7658    Y=         -41661.5631    Z=         -16259.1057  Tot=          50289.4978
 Pt Chg Quadrupole moment (Debye-Ang):
   XX=       -1101722.7493   YY=       -3613667.9867   ZZ=        -550504.0993
   XY=       -1995037.4859   XZ=        -778332.1288   YZ=       -1410204.3048
 Pt Chg Traceless Quadrupole moment (Debye-Ang):
   XX=         653575.5292   YY=       -1858369.7083   ZZ=        1204794.1791
   XY=       -1995037.4859   XZ=        -778332.1288   YZ=       -1410204.3048
 Pt Chg Octapole moment (Debye-Ang**2):
  XXX=      -52793107.5286  YYY=     -313450698.1740  ZZZ=      -18643293.2484  XYY=     -173056033.6187
  XXY=      -95570277.7691  XXZ=      -37272612.3987  XZZ=      -26345407.0524  YZZ=      -47744896.1125
  YYZ=     -122313865.0645  XYZ=      -67510845.8633
 Pt Chg Hexadecapole moment (Debye-Ang**3):
 XXXX=    -2530681077.3260 YYYY=   -27189338557.2730 ZZZZ=     -631513521.8869 XXXY=    -4579840233.9891
 XXXZ=    -1785545119.4563 YYYX=   -15011723717.9999 YYYZ=   -10609079850.5997 ZZZX=     -891955519.6837
 ZZZY=    -1616851633.5509 XXYY=    -8290509846.9312 XXZZ=    -1261263267.0395 YYZZ=    -4140966210.5947
 XXYZ=    -3233116638.3739 YYXZ=    -5855854128.4676 ZZXY=    -2285043884.3149
 Leave Link  101 at Thu Feb  1 10:57:05 2024, MaxMem=   131072000 cpu:               0.2 elap:               0.2
 (Enter /trinity/shared/software/gaussian/g16_A03/g16/l103.exe)

 GradGradGradGradGradGradGradGradGradGradGradGradGradGradGradGradGradGrad
 Berny optimization.
 Initialization pass.
 Trust Radius=3.00D-01 FncErr=1.00D-07 GrdErr=1.00D-07 EigMax=2.50D+02 EigMin=1.00D-04
 Number of steps in this run=      2 maximum allowed number of steps=      2.
 GradGradGradGradGradGradGradGradGradGradGradGradGradGradGradGradGradGrad

 Leave Link  103 at Thu Feb  1 10:57:05 2024, MaxMem=   131072000 cpu:               0.0 elap:               0.0
 (Enter /trinity/shared/software/gaussian/g16_A03/g16/l202.exe)
 ---------------------------------------------------------------------------------------------------
                            Z-MATRIX (ANGSTROMS AND DEGREES)
   CD    Cent   Atom    N1       Length/X        N2       Alpha/Y        N3        Beta/Z          J
 ---------------------------------------------------------------------------------------------------
      1      1  N        0  47.900000         85.620000         31.120000
      2      2  H        0  47.700000         84.870000         30.470000
      3      3  H        0  47.200000         86.370000         30.900000
      4      4  H        0  48.770000         85.950000         31.060000
      5      5  C        0  47.570000         85.150000         32.470000
      6      6  H        0  48.200000         84.400000         32.670000
      7      7  H        0  46.630000         84.810000         32.500000
      8      8  H        0  47.705453         85.948457         33.182908
 ---------------------------------------------------------------------------------------------------
                         Z-Matrix orientation:                         
 ---------------------------------------------------------------------
 Center     Atomic      Atomic             Coordinates (Angstroms)
 Number     Number       Type             X           Y           Z
 ---------------------------------------------------------------------
      1          7           0       47.900000   85.620000   31.120000
      2          1           0       47.700000   84.870000   30.470000
      3          1           0       47.200000   86.370000   30.900000
      4          1           0       48.770000   85.950000   31.060000
      5          6           0       47.570000   85.150000   32.470000
      6          1           0       48.200000   84.400000   32.670000
      7          1           0       46.630000   84.810000   32.500000
      8          1           0       47.705453   85.948457   33.182908
 ---------------------------------------------------------------------
                    Distance matrix (angstroms):
                    1          2          3          4          5
     1  N    0.000000
     2  H    1.012423   0.000000
     3  H    1.049238   1.638566   0.000000
     4  H    0.932416   1.630767   1.633065   0.000000
     5  C    1.467072   2.023685   2.022424   2.016953   0.000000
     6  H    1.995219   2.304539   2.830866   2.306404   0.999700
     7  H    2.042890   2.295517   2.306187   2.820071   1.000050
     8  H    2.097933   2.919412   2.375889   2.374869   1.078943
                    6          7          8
     6  H    0.000000
     7  H    1.631533   0.000000
     8  H    1.704515   1.708522   0.000000
 Symmetry turned off by external request.
 Stoichiometry    CH6N(1+)
 Framework group  C1[X(CH6N)]
 Deg. of freedom    18
 Full point group                 C1      NOp   1
 Rotational constants (GHZ):          91.0011643          21.5758079          21.4323111
 Leave Link  202 at Thu Feb  1 10:57:05 2024, MaxMem=   131072000 cpu:               0.0 elap:               0.0
 (Enter /trinity/shared/software/gaussian/g16_A03/g16/l301.exe)
 Standard basis: STO-3G (5D, 7F)
                         Coordinates in L301:                         
 ---------------------------------------------------------------------
 Center     Atomic      Atomic             Coordinates (Angstroms)
 Number     Number       Type             X           Y           Z
 ---------------------------------------------------------------------
      1          7           0       47.900000   85.620000   31.120000
      2          1           0       47.700000   84.870000   30.470000
      3          1           0       47.200000   86.370000   30.900000
      4          1           0       48.770000   85.950000   31.060000
      5          6           0       47.570000   85.150000   32.470000
      6          1           0       48.200000   84.400000   32.670000
      7          1           0       46.630000   84.810000   32.500000
      8          1           0       47.705453   85.948457   33.182908
 ---------------------------------------------------------------------
 FixB: optimizing general contractions.
 Ernie: Thresh=  0.10000D-02 Tol=  0.10000D-05 Strict=F.
 IA=     1 ShT= 0 ShC= 0 NL=   1 NS=   0.
 IA=     1 L=0 SC=0 ISt=    0 NBk=    0 NP=    0 IndPr=    0.
 IA=     1 ShT= 1 ShC= 0 NL=   1 NS=   0.
 IA=     1 L=1 SC=0 ISt=    0 NBk=    0 NP=    0 IndPr=    0.
 IA=     2 ShT= 0 ShC= 0 NL=   1 NS=   0.
 IA=     2 L=0 SC=0 ISt=    0 NBk=    0 NP=    0 IndPr=    0.
 IA=     3 ShT= 0 ShC= 0 NL=   1 NS=   0.
 IA=     3 L=0 SC=0 ISt=    0 NBk=    0 NP=    0 IndPr=    0.
 IA=     4 ShT= 0 ShC= 0 NL=   1 NS=   0.
 IA=     4 L=0 SC=0 ISt=    0 NBk=    0 NP=    0 IndPr=    0.
 IA=     5 ShT= 0 ShC= 0 NL=   1 NS=   0.
 IA=     5 L=0 SC=0 ISt=    0 NBk=    0 NP=    0 IndPr=    0.
 IA=     5 ShT= 1 ShC= 0 NL=   1 NS=   0.
 IA=     5 L=1 SC=0 ISt=    0 NBk=    0 NP=    0 IndPr=    0.
 IA=     6 ShT= 0 ShC= 0 NL=   1 NS=   0.
 IA=     6 L=0 SC=0 ISt=    0 NBk=    0 NP=    0 IndPr=    0.
 IA=     7 ShT= 0 ShC= 0 NL=   1 NS=   0.
 IA=     7 L=0 SC=0 ISt=    0 NBk=    0 NP=    0 IndPr=    0.
 IA=     8 ShT= 0 ShC= 0 NL=   1 NS=   0.
 IA=     8 L=0 SC=0 ISt=    0 NBk=    0 NP=    0 IndPr=    0.
 AO basis set in the form of general basis input (Overlap normalization):
      1 0
 S   3 1.00       0.000000000000
      0.9910616896D+02  0.1543289673D+00
      0.1805231239D+02  0.5353281423D+00
      0.4885660238D+01  0.4446345422D+00
 SP   3 1.00       0.000000000000
      0.3780455879D+01 -0.9996722919D-01  0.1559162750D+00
      0.8784966449D+00  0.3995128261D+00  0.6076837186D+00
      0.2857143744D+00  0.7001154689D+00  0.3919573931D+00
 ****
      2 0
 S   3 1.00       0.000000000000
      0.3425250914D+01  0.1543289673D+00
      0.6239137298D+00  0.5353281423D+00
      0.1688554040D+00  0.4446345422D+00
 ****
      3 0
 S   3 1.00       0.000000000000
      0.3425250914D+01  0.1543289673D+00
      0.6239137298D+00  0.5353281423D+00
      0.1688554040D+00  0.4446345422D+00
 ****
      4 0
 S   3 1.00       0.000000000000
      0.3425250914D+01  0.1543289673D+00
      0.6239137298D+00  0.5353281423D+00
      0.1688554040D+00  0.4446345422D+00
 ****
      5 0
 S   3 1.00       0.000000000000
      0.7161683735D+02  0.1543289673D+00
      0.1304509632D+02  0.5353281423D+00
      0.3530512160D+01  0.4446345422D+00
 SP   3 1.00       0.000000000000
      0.2941249355D+01 -0.9996722919D-01  0.1559162750D+00
      0.6834830964D+00  0.3995128261D+00  0.6076837186D+00
      0.2222899159D+00  0.7001154689D+00  0.3919573931D+00
 ****
      6 0
 S   3 1.00       0.000000000000
      0.3425250914D+01  0.1543289673D+00
      0.6239137298D+00  0.5353281423D+00
      0.1688554040D+00  0.4446345422D+00
 ****
      7 0
 S   3 1.00       0.000000000000
      0.3425250914D+01  0.1543289673D+00
      0.6239137298D+00  0.5353281423D+00
      0.1688554040D+00  0.4446345422D+00
 ****
      8 0
 S   3 1.00       0.000000000000
      0.3425250914D+01  0.1543289673D+00
      0.6239137298D+00  0.5353281423D+00
      0.1688554040D+00  0.4446345422D+00
 ****

 AO basis set (Overlap normalization):
 Atom N1       Shell     1 S   3     bf    1 -     1         90.517881366666        161.798350785261         58.808276996465
      0.9910616896D+02  0.1543289673D+00
      0.1805231239D+02  0.5353281423D+00
      0.4885660238D+01  0.4446345422D+00
 Atom N1       Shell     2 SP   3    bf    2 -     5         90.517881366666        161.798350785261         58.808276996465
      0.3780455879D+01 -0.9996722919D-01  0.1559162750D+00
      0.8784966449D+00  0.3995128261D+00  0.6076837186D+00
      0.2857143744D+00  0.7001154689D+00  0.3919573931D+00
 Atom H2       Shell     3 S   3     bf    6 -     6         90.139936141753        160.381056191837         57.579955015497
      0.3425250914D+01  0.1543289673D+00
      0.6239137298D+00  0.5353281423D+00
      0.1688554040D+00  0.4446345422D+00
 Atom H3       Shell     4 S   3     bf    7 -     7         89.195073079471        163.215645378684         58.392537249060
      0.3425250914D+01  0.1543289673D+00
      0.6239137298D+00  0.5353281423D+00
      0.1688554040D+00  0.4446345422D+00
 Atom H4       Shell     5 S   3     bf    8 -     8         92.161943095038        162.421960406367         58.694893428991
      0.3425250914D+01  0.1543289673D+00
      0.6239137298D+00  0.5353281423D+00
      0.1688554040D+00  0.4446345422D+00
 Atom C5       Shell     6 S   3     bf    9 -     9         89.894271745560        160.910179506715         61.359407264628
      0.7161683735D+02  0.1543289673D+00
      0.1304509632D+02  0.5353281423D+00
      0.3530512160D+01  0.4446345422D+00
 Atom C5       Shell     7 SP   3    bf   10 -    13         89.894271745560        160.910179506715         61.359407264628
      0.2941249355D+01 -0.9996722919D-01  0.1559162750D+00
      0.6834830964D+00  0.3995128261D+00  0.6076837186D+00
      0.2222899159D+00  0.7001154689D+00  0.3919573931D+00
 Atom H6       Shell     8 S   3     bf   14 -    14         91.084799204036        159.492884913291         61.737352489541
      0.3425250914D+01  0.1543289673D+00
      0.6239137298D+00  0.5353281423D+00
      0.1688554040D+00  0.4446345422D+00
 Atom H7       Shell     9 S   3     bf   15 -    15         88.117929188469        160.267672624363         61.416099048365
      0.3425250914D+01  0.1543289673D+00
      0.6239137298D+00  0.5353281423D+00
      0.1688554040D+00  0.4446345422D+00
 Atom H8       Shell    10 S   3     bf   16 -    16         90.150240818311        162.419044558957         62.706608136639
      0.3425250914D+01  0.1543289673D+00
      0.6239137298D+00  0.5353281423D+00
      0.1688554040D+00  0.4446345422D+00
 LdAtmC:  AtmChg=     7.000000     1.000000     1.000000     1.000000     6.000000
 LdAtmC:  AtmChg=     1.000000     1.000000     1.000000
 AtZEff=     -4.5500000     -1.0000000     -1.0000000     -1.0000000     -3.6000000
 AtZEff=     -1.0000000     -1.0000000     -1.0000000
    16 basis functions,    48 primitive gaussians,    16 cartesian basis functions
     9 alpha electrons        9 beta electrons
       nuclear repulsion energy        49.5901081275 Hartrees.
 IS=     1 IAt=     1 ISR=     1 T=0 IP=      1 IndIP=      1 IndIPD=      0 C=  3.454881D+00  0.000000D+00                             NZ=T
 IS=     1 IAt=     1 ISR=     1 T=0 IP=      2 IndIP=      2 IndIPD=      1 C=  3.341410D+00  0.000000D+00                             NZ=T
 IS=     1 IAt=     1 ISR=     1 T=0 IP=      3 IndIP=      3 IndIPD=      2 C=  1.041372D+00  0.000000D+00                             NZ=T
 IS=     2 IAt=     1 ISR=     2 T=1 IP=      1 IndIP=      4 IndIPD=      0 C= -1.931639D-01  1.171553D+00                             NZ=T
 IS=     2 IAt=     1 ISR=     2 T=1 IP=      2 IndIP=      5 IndIPD=      1 C=  2.583723D-01  7.367037D-01                             NZ=T
 IS=     2 IAt=     1 ISR=     2 T=1 IP=      3 IndIP=      6 IndIPD=      2 C=  1.949974D-01  1.167062D-01                             NZ=T
 IS=     3 IAt=     2 ISR=     1 T=0 IP=      1 IndIP=      7 IndIPD=      0 C=  2.769344D-01  0.000000D+00                             NZ=T
 IS=     3 IAt=     2 ISR=     1 T=0 IP=      2 IndIP=      8 IndIPD=      1 C=  2.678389D-01  0.000000D+00                             NZ=T
 IS=     3 IAt=     2 ISR=     1 T=0 IP=      3 IndIP=      9 IndIPD=      2 C=  8.347367D-02  0.000000D+00                             NZ=T
 IS=     4 IAt=     3 ISR=     1 T=0 IP=      1 IndIP=     10 IndIPD=      0 C=  2.769344D-01  0.000000D+00                             NZ=T
 IS=     4 IAt=     3 ISR=     1 T=0 IP=      2 IndIP=     11 IndIPD=      1 C=  2.678389D-01  0.000000D+00                             NZ=T
 IS=     4 IAt=     3 ISR=     1 T=0 IP=      3 IndIP=     12 IndIPD=      2 C=  8.347367D-02  0.000000D+00                             NZ=T
 IS=     5 IAt=     4 ISR=     1 T=0 IP=      1 IndIP=     13 IndIPD=      0 C=  2.769344D-01  0.000000D+00                             NZ=T
 IS=     5 IAt=     4 ISR=     1 T=0 IP=      2 IndIP=     14 IndIPD=      1 C=  2.678389D-01  0.000000D+00                             NZ=T
 IS=     5 IAt=     4 ISR=     1 T=0 IP=      3 IndIP=     15 IndIPD=      2 C=  8.347367D-02  0.000000D+00                             NZ=T
 IS=     6 IAt=     5 ISR=     1 T=0 IP=      1 IndIP=     16 IndIPD=      0 C=  2.707814D+00  0.000000D+00                             NZ=T
 IS=     6 IAt=     5 ISR=     1 T=0 IP=      2 IndIP=     17 IndIPD=      1 C=  2.618880D+00  0.000000D+00                             NZ=T
 IS=     6 IAt=     5 ISR=     1 T=0 IP=      3 IndIP=     18 IndIPD=      2 C=  8.161906D-01  0.000000D+00                             NZ=T
 IS=     7 IAt=     5 ISR=     2 T=1 IP=      1 IndIP=     19 IndIPD=      0 C= -1.600172D-01  8.560445D-01                             NZ=T
 IS=     7 IAt=     5 ISR=     2 T=1 IP=      2 IndIP=     20 IndIPD=      1 C=  2.140359D-01  5.383038D-01                             NZ=T
 IS=     7 IAt=     5 ISR=     2 T=1 IP=      3 IndIP=     21 IndIPD=      2 C=  1.615361D-01  8.527636D-02                             NZ=T
 IS=     8 IAt=     6 ISR=     1 T=0 IP=      1 IndIP=     22 IndIPD=      0 C=  2.769344D-01  0.000000D+00                             NZ=T
 IS=     8 IAt=     6 ISR=     1 T=0 IP=      2 IndIP=     23 IndIPD=      1 C=  2.678389D-01  0.000000D+00                             NZ=T
 IS=     8 IAt=     6 ISR=     1 T=0 IP=      3 IndIP=     24 IndIPD=      2 C=  8.347367D-02  0.000000D+00                             NZ=T
 IS=     9 IAt=     7 ISR=     1 T=0 IP=      1 IndIP=     25 IndIPD=      0 C=  2.769344D-01  0.000000D+00                             NZ=T
 IS=     9 IAt=     7 ISR=     1 T=0 IP=      2 IndIP=     26 IndIPD=      1 C=  2.678389D-01  0.000000D+00                             NZ=T
 IS=     9 IAt=     7 ISR=     1 T=0 IP=      3 IndIP=     27 IndIPD=      2 C=  8.347367D-02  0.000000D+00                             NZ=T
 IS=    10 IAt=     8 ISR=     1 T=0 IP=      1 IndIP=     28 IndIPD=      0 C=  2.769344D-01  0.000000D+00                             NZ=T
 IS=    10 IAt=     8 ISR=     1 T=0 IP=      2 IndIP=     29 IndIPD=      1 C=  2.678389D-01  0.000000D+00                             NZ=T
 IS=    10 IAt=     8 ISR=     1 T=0 IP=      3 IndIP=     30 IndIPD=      2 C=  8.347367D-02  0.000000D+00                             NZ=T
 IExCor=  404 DFT=T Ex=B Corr=P86 ExCW=0 ScaHFX=  0.000000
 ScaDFX=  1.000000  1.000000  1.000000  1.000000 ScalE2=  1.000000  1.000000
 IRadAn=      5 IRanWt=     -1 IRanGd=            0 ICorTp=0 IEmpDi=  4
 NAtoms=    8 NActive=    8 NUniq=    8 SFac= 1.00D+00 NAtFMM=   60 NAOKFM=F Big=F
 Integral buffers will be    131072 words long.
 Raffenetti 2 integral format.
 Two-electron integral symmetry is turned off.
 Background charge distribution read from rwf.
 PtFMM for NChg=        25 BoxLen=    40.00 Levels= 0 LMax=20 SMax=    10.6 ICnFMM=     1:
 Self energy of the charges =       602.8406022190 a.u.
 MM   energy of the charges =         0.0000000000 a.u.
 Nuclei-charges interaction =      -372.3053690230 a.u.
 Nuclear repulsion after external point charges =      280.1253413236 Hartrees.
 Leave Link  301 at Thu Feb  1 10:57:06 2024, MaxMem=   131072000 cpu:               0.1 elap:               0.1
 (Enter /trinity/shared/software/gaussian/g16_A03/g16/l302.exe)
 NPDir=0 NMtPBC=     1 NCelOv=     1 NCel=       1 NClECP=     1 NCelD=      1
         NCelK=      1 NCelE2=     1 NClLst=     1 CellRange=     0.0.
 One-electron integrals computed using PRISM.
 Entering OneElI...
 Calculate overlap and kinetic energy integrals
    NBasis =  16  MinDer = 0  MaxDer = 0
 Requested accuracy = 0.1000D-12
 PrmmSu-InSpLW:  IPartL=    0 NPrtUS=    1 NPrtUL=    1 DoSpLW=F IThBeg=    0 IThEnd=    0 NThAct=    1.
 PrsmSu:  NPrtUS=   1 ThrOK=F IAlg=1 NPAlg=1 LenDen=           0 ISkipM=0 DoSpLW=F IThBeg=    0 IThEnd=    0.
 Prism:   IPart=     0 DynPar=F LinDyn=F Incr=           1.
 PRISM was handed   131062193 working-precision words and    55 shell-pairs
 IPart=  0 NShTot=          55 NBatch=           5 AvBLen=        11.0
 PrSmSu:  NxtVal=              2.
 *** Overlap *** 
                1             2             3             4             5 
      1  0.100000D+01
      2  0.235038D+00  0.100000D+01
      3  0.000000D+00  0.000000D+00  0.100000D+01
      4  0.000000D+00  0.000000D+00  0.000000D+00  0.100000D+01
      5  0.000000D+00  0.000000D+00  0.000000D+00  0.000000D+00  0.100000D+01
      6  0.583565D-01  0.494635D+00 -0.868339D-01 -0.325627D+00 -0.282210D+00
      7  0.534908D-01  0.471961D+00 -0.284610D+00  0.304939D+00 -0.894488D-01
      8  0.704423D-01  0.545485D+00  0.434080D+00  0.164651D+00 -0.299366D-01
      9  0.000000D+00  0.236483D-01 -0.911208D-02 -0.129778D-01  0.372767D-01
     10  0.247919D-01  0.287937D+00 -0.682263D-01 -0.971707D-01  0.279107D+00
     11  0.928642D-02  0.786220D-01  0.132959D+00 -0.334510D-01  0.960825D-01
     12  0.132261D-01  0.111977D+00 -0.334510D-01  0.108804D+00  0.136845D+00
     13 -0.379899D-01 -0.321635D+00  0.960825D-01  0.136845D+00 -0.236619D+00
     14  0.624261D-02  0.102042D+00  0.182293D-01 -0.741324D-01  0.941846D-01
     15  0.556235D-02  0.931477D-01 -0.695719D-01 -0.443726D-01  0.755978D-01
     16  0.485544D-02  0.837101D-01 -0.944637D-02  0.159485D-01  0.100166D+00
                6             7             8             9            10 
      6  0.100000D+01
      7  0.209761D+00  0.100000D+01
      8  0.212207D+00  0.211484D+00  0.100000D+01
      9  0.751571D-02  0.753857D-02  0.763849D-02  0.100000D+01
     10  0.123224D+00  0.123497D+00  0.124685D+00  0.248362D+00  0.100000D+01
     11  0.989469D-02 -0.282331D-01  0.925763D-01  0.000000D+00  0.000000D+00
     12 -0.213116D-01  0.930929D-01  0.617176D-01  0.000000D+00  0.000000D+00
     13 -0.152226D+00 -0.119800D+00 -0.108777D+00  0.000000D+00  0.000000D+00
     14  0.708009D-01  0.259310D-01  0.705658D-01  0.768750D-01  0.543793D+00
     15  0.719471D-01  0.705931D-01  0.265058D-01  0.768125D-01  0.543584D+00
     16  0.216185D-01  0.622703D-01  0.623859D-01  0.639042D-01  0.497134D+00
               11            12            13            14            15 
     11  0.100000D+01
     12  0.000000D+00  0.100000D+01
     13  0.000000D+00  0.000000D+00  0.100000D+01
     14  0.312643D+00 -0.372194D+00  0.992519D-01  0.100000D+01
     15 -0.466224D+00 -0.168634D+00  0.148795D-01  0.211965D+00  0.100000D+01
     16  0.591358D-01  0.348588D+00  0.311240D+00  0.189987D+00  0.188837D+00
               16 
     16  0.100000D+01
 *** Kinetic Energy *** 
                1             2             3             4             5 
      1  0.219908D+02
      2 -0.128416D+00  0.606994D+00
      3  0.000000D+00  0.000000D+00  0.189936D+01
      4  0.000000D+00  0.000000D+00  0.000000D+00  0.189936D+01
      5  0.000000D+00  0.000000D+00  0.000000D+00  0.000000D+00  0.189936D+01
      6 -0.620465D-02  0.122765D+00 -0.560544D-01 -0.210204D+00 -0.182177D+00
      7 -0.800807D-02  0.108378D+00 -0.172349D+00  0.184659D+00 -0.541667D-01
      8 -0.924724D-04  0.157884D+00  0.319901D+00  0.121342D+00 -0.220621D-01
      9 -0.163512D-05 -0.112928D-01  0.292201D-02  0.416164D-02 -0.119537D-01
     10 -0.662111D-02  0.203555D-01 -0.225477D-01 -0.321134D-01  0.922405D-01
     11 -0.226518D-02  0.254899D-01  0.295622D-01 -0.205707D-01  0.590860D-01
     12 -0.322616D-02  0.363037D-01 -0.205707D-01  0.147078D-01  0.841528D-01
     13  0.926664D-02 -0.104277D+00  0.590860D-01  0.841528D-01 -0.197710D+00
     14 -0.214049D-02 -0.166679D-01 -0.701482D-04  0.285269D-03 -0.362432D-03
     15 -0.204166D-02 -0.167792D-01  0.152270D-02  0.971169D-03 -0.165458D-02
     16 -0.193617D-02 -0.166943D-01  0.400006D-03 -0.675337D-03 -0.424152D-02
                6             7             8             9            10 
      6  0.760032D+00
      7  0.260462D-03  0.760032D+00
      8  0.676845D-03  0.552977D-03  0.760032D+00
      9 -0.266979D-02 -0.267338D-02 -0.268907D-02  0.158911D+02
     10 -0.137143D-01 -0.136949D-01 -0.136088D-01 -0.858900D-01  0.472250D+00
     11  0.391996D-03 -0.113056D-02  0.387886D-02  0.000000D+00  0.000000D+00
     12 -0.844298D-03  0.372779D-02  0.258590D-02  0.000000D+00  0.000000D+00
     13 -0.603070D-02 -0.479723D-02 -0.455766D-02  0.000000D+00  0.000000D+00
     14 -0.114363D-01 -0.809978D-02 -0.114334D-01 -0.545173D-02  0.138804D+00
     15 -0.114490D-01 -0.114338D-01 -0.819352D-02 -0.547946D-02  0.138671D+00
     16 -0.732862D-02 -0.112564D-01 -0.112600D-01 -0.101110D-01  0.110507D+00
               11            12            13            14            15 
     11  0.147773D+01
     12  0.000000D+00  0.147773D+01
     13  0.000000D+00  0.000000D+00  0.147773D+01
     14  0.201227D+00 -0.239556D+00  0.638817D-01  0.760032D+00
     15 -0.299919D+00 -0.108481D+00  0.957189D-02  0.635424D-03  0.760032D+00
     16  0.336483D-01  0.198347D+00  0.177096D+00 -0.283283D-02 -0.299809D-02
               16 
     16  0.760032D+00
 Entering OneElI...
 Calculate potential energy integrals
    NBasis =  16  MinDer = 0  MaxDer = 0
 Requested accuracy = 0.1000D-12
 PrmmSu-InSpLW:  IPartL=    0 NPrtUS=    1 NPrtUL=    1 DoSpLW=F IThBeg=    0 IThEnd=    0 NThAct=    1.
 PrsmSu:  NPrtUS=   1 ThrOK=F IAlg=1 NPAlg=1 LenDen=           0 ISkipM=0 DoSpLW=F IThBeg=    0 IThEnd=    0.
 Prism:   IPart=     0 DynPar=F LinDyn=F Incr=          13.
 PRISM was handed   131061379 working-precision words and    55 shell-pairs
 IPart=  0 NShTot=        1375 NBatch=          55 AvBLen=        25.0
 PrSmSu:  NxtVal=             14.
 ***** Potential Energy ***** 
                1             2             3             4             5 
      1  0.335962D+02
      2  0.247388D+01 -0.576739D+01
      3 -0.248394D-01 -0.331983D+00 -0.572442D+01
      4 -0.803483D-01 -0.103224D+01 -0.174812D-01 -0.579381D+01
      5 -0.110078D+00 -0.139305D+01 -0.107132D+00 -0.274702D+00 -0.595366D+01
      6  0.663377D+00 -0.271038D+01  0.416744D+00  0.161994D+01  0.124428D+01
      7  0.592946D+00 -0.351427D+01  0.213047D+01 -0.284718D+01  0.740007D-01
      8  0.787017D+00 -0.418160D+01 -0.371435D+01 -0.188073D+01 -0.565664D+00
      9  0.000000D+00  0.136880D-02 -0.300176D-02 -0.767521D-02  0.358213D-02
     10  0.270278D+00 -0.257720D+01  0.496889D+00  0.476693D+00 -0.300739D+01
     11  0.100545D+00 -0.800707D+00 -0.136520D+01  0.212760D+00 -0.114932D+01
     12  0.142263D+00 -0.139545D+01  0.336768D+00 -0.118119D+01 -0.195259D+01
     13 -0.415776D+00  0.232015D+01 -0.663453D+00 -0.753299D+00  0.202691D+01
     14  0.680124D-01 -0.913561D+00 -0.236004D+00  0.574171D+00 -0.101154D+01
     15  0.606073D-01 -0.811391D+00  0.628336D+00  0.293976D+00 -0.799980D+00
     16  0.519480D-01 -0.109805D+01  0.659977D-01 -0.401953D+00 -0.156838D+01
                6             7             8             9            10 
      6 -0.561762D+01
      7 -0.140873D+01 -0.889066D+01
      8 -0.143500D+01 -0.188771D+01 -0.956999D+01
      9  0.229994D-02 -0.541359D-03 -0.580497D-03  0.163446D+02
     10 -0.973179D+00 -0.133467D+01 -0.139481D+01 -0.106462D+00 -0.121855D+02
     11 -0.812508D-01  0.307116D+00 -0.113840D+01 -0.316947D-01 -0.364723D+00
     12  0.100533D+00 -0.122765D+01 -0.921313D+00 -0.215800D+00 -0.249766D+01
     13  0.101491D+01  0.973110D+00  0.858267D+00 -0.263125D+00 -0.307486D+01
     14 -0.580757D+00 -0.262654D+00 -0.785358D+00  0.124029D-01 -0.632875D+01
     15 -0.587707D+00 -0.749402D+00 -0.267934D+00  0.126697D-01 -0.637877D+01
     16 -0.241674D+00 -0.101736D+01 -0.109498D+01 -0.464999D-01 -0.963967D+01
               11            12            13            14            15 
     11 -0.120551D+02
     12 -0.185070D+00 -0.124918D+02
     13 -0.520881D-01 -0.709953D+00 -0.121385D+02
     14 -0.384167D+01  0.336912D+01 -0.233046D+01 -0.111689D+02
     15  0.545552D+01  0.101998D+01 -0.143163D+01 -0.237912D+01 -0.114243D+02
     16 -0.140782D+01 -0.836457D+01 -0.775377D+01 -0.331765D+01 -0.334537D+01
               16 
     16 -0.275674D+02
 ****** Core Hamiltonian ****** 
                1             2             3             4             5 
      1 -0.116055D+02
      2 -0.260230D+01  0.637438D+01
      3  0.248394D-01  0.331983D+00  0.762377D+01
      4  0.803483D-01  0.103224D+01  0.174812D-01  0.769316D+01
      5  0.110078D+00  0.139305D+01  0.107132D+00  0.274702D+00  0.785302D+01
      6 -0.669582D+00  0.283315D+01 -0.472798D+00 -0.183015D+01 -0.142645D+01
      7 -0.600954D+00  0.362265D+01 -0.230282D+01  0.303184D+01 -0.128167D+00
      8 -0.787109D+00  0.433949D+01  0.403425D+01  0.200207D+01  0.543602D+00
      9 -0.142887D-05 -0.126616D-01  0.592377D-02  0.118369D-01 -0.155358D-01
     10 -0.276899D+00  0.259755D+01 -0.519437D+00 -0.508807D+00  0.309963D+01
     11 -0.102810D+00  0.826197D+00  0.139476D+01 -0.233331D+00  0.120840D+01
     12 -0.145490D+00  0.143176D+01 -0.357339D+00  0.119590D+01  0.203674D+01
     13  0.425043D+00 -0.242443D+01  0.722539D+00  0.837452D+00 -0.222462D+01
     14 -0.701529D-01  0.896894D+00  0.235934D+00 -0.573886D+00  0.101117D+01
     15 -0.626490D-01  0.794611D+00 -0.626813D+00 -0.293005D+00  0.798326D+00
     16 -0.538842D-01  0.108136D+01 -0.655977D-01  0.401277D+00  0.156414D+01
                6             7             8             9            10 
      6  0.637765D+01
      7  0.140899D+01  0.965069D+01
      8  0.143568D+01  0.188827D+01  0.103300D+02
      9 -0.496973D-02 -0.213202D-02 -0.210857D-02 -0.453481D+00
     10  0.959465D+00  0.132097D+01  0.138120D+01  0.205721D-01  0.126577D+02
     11  0.816428D-01 -0.308247D+00  0.114228D+01  0.316947D-01  0.364723D+00
     12 -0.101377D+00  0.123138D+01  0.923899D+00  0.215800D+00  0.249766D+01
     13 -0.102094D+01 -0.977907D+00 -0.862824D+00  0.263125D+00  0.307486D+01
     14  0.569321D+00  0.254554D+00  0.773924D+00 -0.178547D-01  0.646755D+01
     15  0.576258D+00  0.737968D+00  0.259741D+00 -0.181491D-01  0.651744D+01
     16  0.234346D+00  0.100611D+01  0.108372D+01  0.363889D-01  0.975018D+01
               11            12            13            14            15 
     11  0.135329D+02
     12  0.185070D+00  0.139696D+02
     13  0.520881D-01  0.709953D+00  0.136162D+02
     14  0.404290D+01 -0.360868D+01  0.239435D+01  0.119290D+02
     15 -0.575544D+01 -0.112846D+01  0.144121D+01  0.237975D+01  0.121843D+02
     16  0.144147D+01  0.856291D+01  0.793087D+01  0.331482D+01  0.334237D+01
               16 
     16  0.283274D+02
 SVDSVc IOpt=   1 NormSV=T IR=1
 SVDSVc V= 2.59D+00 2.03D+00 1.65D+00 1.62D+00 1.36D+00 1.28D+00 1.24D+00 9.82D-01 9.63D-01 4.42D-01
 SVDSVc V= 4.01D-01 3.53D-01 3.36D-01 3.06D-01 2.49D-01 1.88D-01
 TstOVc:  Largest diagonal error= 8.88D-16 IB=1 I=    2.
 TstOVc:  Largest same sym error= 2.23D-15 IB=1 I=    8 J=    7.
 Orthogonalized basis functions: 
                 1             2             3             4             5 
      1   0.717007D-01  0.942115D-01  0.375232D-02 -0.283488D-02  0.287276D-01
      2   0.286807D+00  0.259910D+00  0.319106D-02 -0.365647D-02  0.418648D-01
      3  -0.131906D-01  0.388704D-01  0.376585D+00 -0.139152D+00 -0.204960D+00
      4  -0.198855D-01  0.606982D-01  0.122004D+00  0.354994D+00 -0.166566D+00
      5   0.491559D-01 -0.143008D+00  0.128170D+00  0.940772D-01  0.536296D+00
      6   0.184788D+00  0.192014D+00 -0.163174D+00 -0.200825D+00 -0.111458D+00
      7   0.178889D+00  0.192363D+00 -0.127251D+00  0.221539D+00 -0.519444D-01
      8   0.190145D+00  0.218758D+00  0.252866D+00 -0.852753D-02 -0.177454D+00
      9   0.785087D-01 -0.103726D+00  0.407696D-02  0.646926D-02  0.591258D-01
     10   0.295013D+00 -0.257693D+00  0.104302D-01  0.179140D-01  0.731182D-01
     11   0.151611D-01  0.499302D-01  0.409366D+00 -0.181065D+00  0.185785D+00
     12   0.124433D-01  0.904433D-01  0.120872D+00  0.426299D+00  0.175222D+00
     13  -0.681420D-01 -0.199271D+00  0.148130D+00  0.123167D+00 -0.473186D+00
     14   0.185780D+00 -0.221272D+00  0.140087D+00 -0.263581D+00 -0.375297D-01
     15   0.181958D+00 -0.225713D+00 -0.273638D+00  0.335108D-01 -0.143359D+00
     16   0.163957D+00 -0.202222D+00  0.167701D+00  0.267529D+00 -0.805737D-01
                 6             7             8             9            10 
      1   0.166563D-01 -0.190029D-01  0.889987D+00  0.409050D+00 -0.532770D-01
      2   0.109345D-01 -0.144135D-01  0.367582D-01 -0.130941D-01  0.140080D+00
      3   0.373998D+00 -0.263381D+00 -0.368675D-01  0.913843D-02  0.110303D-01
      4   0.205199D+00  0.462049D+00 -0.177930D-01  0.460848D-01 -0.377744D+00
      5   0.244414D+00  0.180869D-01  0.630062D-01 -0.135682D+00  0.866123D+00
      6  -0.277991D+00 -0.236353D+00 -0.109324D+00 -0.417582D-01  0.231475D+00
      7  -0.110288D+00  0.374476D+00 -0.993886D-01 -0.426145D-01  0.444231D+00
      8   0.298497D+00 -0.706180D-01 -0.113207D+00 -0.474119D-01  0.100293D+00
      9   0.167054D-01 -0.136155D-01 -0.397802D+00  0.898580D+00  0.863642D-01
     10   0.108015D-01 -0.177314D-01 -0.230939D-01 -0.124592D-01 -0.204090D+00
     11  -0.336831D+00  0.206635D+00 -0.242824D-01 -0.128562D-02 -0.142247D+00
     12  -0.170813D+00 -0.353273D+00 -0.508239D-01 -0.108261D-01 -0.288113D+00
     13  -0.221695D+00 -0.734612D-02  0.119210D+00  0.484118D-01  0.894383D+00
     14  -0.978453D-01  0.311258D+00  0.534871D-01 -0.986966D-01 -0.237206D+00
     15   0.305348D+00 -0.758456D-01  0.509178D-01 -0.110967D+00 -0.130646D+00
     16  -0.260709D+00 -0.222791D+00  0.559936D-01 -0.112242D+00 -0.241853D+00
                11            12            13            14            15 
      1   0.382302D-01 -0.763272D-01  0.535628D-01 -0.464129D-01 -0.280662D+00
      2  -0.111684D+00  0.254428D+00 -0.201668D+00  0.190712D+00  0.141880D+01
      3   0.449417D+00 -0.761659D+00  0.418370D+00 -0.318006D+00  0.360577D+00
      4  -0.779546D+00 -0.254966D+00  0.444913D+00 -0.200988D-01  0.150877D+00
      5  -0.323179D+00 -0.633280D-01  0.278002D+00 -0.117956D+00 -0.171081D+00
      6  -0.752773D+00 -0.522615D+00  0.580835D+00 -0.201858D+00 -0.449275D+00
      7   0.909045D+00 -0.400437D+00  0.125193D+00 -0.195347D+00 -0.373185D+00
      8  -0.135357D+00  0.762735D+00 -0.429907D+00  0.140401D+00 -0.963996D+00
      9   0.227463D-02  0.372433D-01  0.546031D-01 -0.733403D-02 -0.700969D-01
     10  -0.920366D-02 -0.102176D+00 -0.187863D+00  0.327968D-01  0.381592D+00
     11   0.515037D-01 -0.338817D+00  0.294632D-01  0.108302D+01 -0.189788D+00
     12  -0.115658D+00 -0.590597D+00 -0.811241D+00 -0.253202D+00 -0.203552D+00
     13  -0.231737D+00 -0.546239D-01 -0.417353D+00  0.180318D+00  0.256041D+00
     14  -0.119049D+00 -0.144959D+00 -0.471377D+00 -0.933091D+00 -0.215046D+00
     15   0.214692D-01 -0.498283D+00 -0.127153D+00  0.930365D+00 -0.351726D+00
     16   0.264947D+00  0.593165D+00  0.913470D+00 -0.648642D-01 -0.108674D+00
                16 
      1   0.120725D+00
      2  -0.664561D+00
      3   0.227216D-01
      4   0.817580D-01
      5  -0.198831D+00
      6   0.170191D+00
      7   0.142124D+00
      8   0.224757D+00
      9  -0.308703D+00
     10   0.172701D+01
     11  -0.401560D-01
     12  -0.240466D+00
     13   0.633722D-01
     14  -0.826862D+00
     15  -0.799933D+00
     16  -0.513141D+00
 NBasis=    16 RedAO= T EigKep=  1.88D-01  NBF=    16
 NBsUse=    16 1.00D-06 EigRej= -1.00D+00 NBFU=    16
 Precomputing XC quadrature grid using
 IXCGrd= 4 IRadAn=           5 IRanWt=          -1 IRanGd=           0 AccXCQ= 0.00D+00.
 SetAtRh:  ITypeU=  23 NETotI=       0 ICharg=  1 NETot=       0.
 StAtR1:  I=    1 I1=    1 IA=  7 C=   7.0 OKShel=TTT
                                                  SSP
                                                  223
 StAtR1:  I=    2 I1=    2 IA=  1 C=   1.0 OKShel=T
                                                  S
                                                  1
 StAtR1:  I=    3 I1=    3 IA=  1 C=   1.0 OKShel=T
                                                  S
                                                  1
 StAtR1:  I=    4 I1=    4 IA=  1 C=   1.0 OKShel=T
                                                  S
                                                  1
 StAtR1:  I=    5 I1=    5 IA=  6 C=   6.0 OKShel=TTT
                                                  SSP
                                                  222
 StAtR1:  I=    6 I1=    6 IA=  1 C=   1.0 OKShel=T
                                                  S
                                                  1
 StAtR1:  I=    7 I1=    7 IA=  1 C=   1.0 OKShel=T
                                                  S
                                                  1
 StAtR1:  I=    8 I1=    8 IA=  1 C=   1.0 OKShel=T
                                                  S
                                                  1
          I=    1 IA=  7 I1=    1 NAtG= 0 NE=   7.000 C=   0.000 Err=-7.00D+00
          I=    2 IA=  1 I1=    2 NAtG= 0 NE=   1.000 C=   0.000 Err=-1.00D+00
          I=    3 IA=  1 I1=    3 NAtG= 0 NE=   1.000 C=   0.000 Err=-1.00D+00
          I=    4 IA=  1 I1=    4 NAtG= 0 NE=   1.000 C=   0.000 Err=-1.00D+00
          I=    5 IA=  6 I1=    5 NAtG= 0 NE=   6.000 C=   0.000 Err=-6.00D+00
          I=    6 IA=  1 I1=    6 NAtG= 0 NE=   1.000 C=   0.000 Err=-1.00D+00
          I=    7 IA=  1 I1=    7 NAtG= 0 NE=   1.000 C=   0.000 Err=-1.00D+00
          I=    8 IA=  1 I1=    8 NAtG= 0 NE=   1.000 C=   0.000 Err=-1.00D+00
 Generated NRdTot=       0 NPtTot=           0 NUsed=           0 NTot=          32
 NSgBfM=    16    16    16    16    16 MxSgAt=     8 MxSgA2=     8.
 IGWInf( 1) =          32 (NGWInf)
 IGWInf( 2) =           8 (NAtomA)
 IGWInf( 3) =           5 (IRadAn)
 IGWInf( 4) =          -1 (IRanWt)
 IGWInf( 5) =           0 (IRanGd)
 IGWInf( 6) =           2 (IRType)
 IGWInf( 7) =           0 (NRdTot)
 IGWInf( 8) =           0 (NGWTot)
 IGWInf( 9) =      173132 (LGWBtD)
 IGWInf(10) =           0 (NAtBtD)
 IGWInf(11) =           0 (NIRBtD)
 IGWInf(12) =           0 (NRRBtD)
 IGWInf(13) =           1 (NClRep)
 IGWInf(14) =           0 (ICntr3)
 IGWInf(15) =           0 (IPFlag)
 IGWInf(16) =           0 (IGet)  
 IGWInf(17) =           0         
 IGWInf(18) =          16         
 IGWInf(19) =          16         
 IGWInf(20) =          16         
 IGWInf(21) =          16         
 IGWInf(22) =          16         
 IGWInf(23) =           8         
 IGWInf(24) =           8         
 IGWInf(25) =           0         
 IGWInf(26) =           0         
 IGWInf(27) =           0         
 IGWInf(28) =           0         
 IGWInf(29) =           0         
 IGWInf(30) =           0         
 IGWInf(31) =           0         
 IGWInf(32) =           0         
 IAtBtD: 
              1            2            3            4            5
              6            7            8
 Leave Link  302 at Thu Feb  1 10:57:06 2024, MaxMem=   131072000 cpu:               0.2 elap:               0.2
 (Enter /trinity/shared/software/gaussian/g16_A03/g16/l303.exe)
 DipDrv:  MaxL=1.
 DipPsm:  J= 1 NJ= 4 MaxL=1 MMat= 4 MaxMat= 4.
 DipInt: DoE/N= T F RetVal/Mat= F T Init=T NMatP=  4 IDeriv=0 Min/MaxMlt=  0  1
 Entering OneElI...
 Multipole integrals L=0 to 1 MinM= 0 MaxM= 3.
 Requested accuracy = 0.1000D-12
 PrmmSu-InSpLW:  IPartL=    0 NPrtUS=    1 NPrtUL=    1 DoSpLW=F IThBeg=    0 IThEnd=    0 NThAct=    1.
 PrsmSu:  NPrtUS=   1 ThrOK=F IAlg=1 NPAlg=1 LenDen=           0 ISkipM=0 DoSpLW=F IThBeg=    0 IThEnd=    0.
 Prism:   IPart=     0 DynPar=F LinDyn=F Incr=           1.
 PRISM was handed   131062647 working-precision words and    55 shell-pairs
 IPart=  0 NShTot=          55 NBatch=           6 AvBLen=         9.2
 PrSmSu:  NxtVal=              2.
 Multipole matrices IBuc=  518 IX=    1 IJ=           1:
                1             2             3             4             5 
      1  0.905179D+02
      2  0.212751D+02  0.905179D+02
      3  0.579343D-01  0.739815D+00  0.905179D+02
      4  0.000000D+00  0.000000D+00  0.000000D+00  0.905179D+02
      5  0.000000D+00  0.000000D+00  0.000000D+00  0.000000D+00  0.905179D+02
      6  0.528120D+01  0.446837D+02 -0.750514D+01 -0.294163D+02 -0.254942D+02
      7  0.483844D+01  0.424232D+02 -0.252597D+02  0.274105D+02 -0.804042D+01
      8  0.638251D+01  0.498099D+02  0.400101D+02  0.150340D+02 -0.273346D+01
      9  0.252393D-05  0.212674D+01 -0.817944D+00 -0.116719D+01  0.335258D+01
     10  0.224354D+01  0.259840D+02 -0.595589D+01 -0.877080D+01  0.251927D+02
     11  0.841480D+00  0.727799D+01  0.120064D+02 -0.308146D+01  0.885099D+01
     12  0.119682D+01  0.101014D+02 -0.294251D+01  0.981809D+01  0.123473D+02
     13 -0.343769D+01 -0.290146D+02  0.845188D+01  0.123473D+02 -0.213489D+02
     14  0.565160D+00  0.926062D+01  0.172670D+01 -0.672786D+01  0.854769D+01
     15  0.503146D+00  0.833969D+01 -0.616221D+01 -0.397243D+01  0.676785D+01
     16  0.439458D+00  0.756473D+01 -0.794000D+00  0.144122D+01  0.905173D+01
                6             7             8             9            10 
      6  0.901399D+02
      7  0.188087D+02  0.891951D+02
      8  0.193428D+02  0.191770D+02  0.921619D+02
      9  0.675685D+00  0.677485D+00  0.687278D+00  0.898943D+02
     10  0.110917D+02  0.110602D+02  0.113444D+02  0.223264D+02  0.898943D+02
     11  0.979074D+00 -0.244000D+01  0.851113D+01  0.718555D-01  0.838744D+00
     12 -0.191828D+01  0.833766D+01  0.561443D+01  0.000000D+00  0.000000D+00
     13 -0.137020D+02 -0.107296D+02 -0.989544D+01  0.000000D+00  0.000000D+00
     14  0.641543D+01  0.233742D+01  0.646548D+01  0.691694D+01  0.492259D+02
     15  0.641257D+01  0.625854D+01  0.238923D+01  0.689560D+01  0.483549D+02
     16  0.194880D+01  0.558395D+01  0.568685D+01  0.574567D+01  0.447563D+02
               11            12            13            14            15 
     11  0.898943D+02
     12  0.000000D+00  0.898943D+02
     13  0.000000D+00  0.000000D+00  0.898943D+02
     14  0.286897D+02 -0.336858D+02  0.898287D+01  0.910848D+02
     15 -0.410919D+02 -0.150054D+02  0.132400D+01  0.189924D+02  0.881179D+02
     16  0.568207D+01  0.313817D+02  0.280194D+02  0.172162D+02  0.168318D+02
               16 
     16  0.901502D+02
 Multipole matrices IBuc=  518 IX=    2 IJ=           1:
                1             2             3             4             5 
      1  0.161798D+03
      2  0.380287D+02  0.161798D+03
      3  0.000000D+00  0.000000D+00  0.161798D+03
      4  0.579343D-01  0.739815D+00  0.000000D+00  0.161798D+03
      5  0.000000D+00  0.000000D+00  0.000000D+00  0.000000D+00  0.161798D+03
      6  0.943783D+01  0.796952D+02 -0.139908D+02 -0.521264D+02 -0.454702D+02
      7  0.865841D+01  0.766815D+02 -0.462413D+02  0.498677D+02 -0.145330D+02
      8  0.113998D+02  0.884231D+02  0.703636D+02  0.270645D+02 -0.485266D+01
      9  0.451412D-05  0.380653D+01 -0.146679D+01 -0.208749D+01  0.600050D+01
     10  0.401048D+01  0.464745D+02 -0.110140D+02 -0.154843D+02  0.450573D+02
     11  0.150215D+01  0.126864D+02  0.214590D+02 -0.534535D+01  0.155064D+02
     12  0.214058D+01  0.182540D+02 -0.544291D+01  0.175732D+02  0.222665D+02
     13 -0.614517D+01 -0.518989D+02  0.155064D+02  0.218674D+02 -0.381857D+02
     14  0.100967D+01  0.164129D+02  0.293191D+01 -0.118508D+02  0.151482D+02
     15  0.899758D+00  0.150126D+02 -0.112125D+02 -0.708512D+01  0.121837D+02
     16  0.785680D+00  0.135653D+02 -0.153081D+01  0.264413D+01  0.162322D+02
                6             7             8             9            10 
      6  0.160381D+03
      7  0.339389D+02  0.163216D+03
      8  0.342505D+02  0.344335D+02  0.162422D+03
      9  0.120921D+01  0.121365D+01  0.122953D+01  0.160910D+03
     10  0.197967D+02  0.200086D+02  0.201537D+02  0.399640D+02  0.160910D+03
     11  0.158968D+01 -0.457385D+01  0.149629D+02  0.000000D+00  0.000000D+00
     12 -0.333547D+01  0.151700D+02  0.100647D+02  0.718555D-01  0.838744D+00
     13 -0.244565D+02 -0.194079D+02 -0.175814D+02  0.000000D+00  0.000000D+00
     14  0.113237D+02  0.418408D+01  0.113581D+02  0.123625D+02  0.870946D+02
     15  0.115349D+02  0.114178D+02  0.427658D+01  0.123565D+02  0.872836D+02
     16  0.348922D+01  0.101387D+02  0.101327D+02  0.102890D+02  0.803876D+02
               11            12            13            14            15 
     11  0.160910D+03
     12  0.000000D+00  0.160910D+03
     13  0.000000D+00  0.000000D+00  0.160910D+03
     14  0.500799D+02 -0.592252D+02  0.158984D+02  0.159493D+03
     15 -0.748664D+02 -0.266858D+02  0.238935D+01  0.338891D+02  0.160268D+03
     16  0.956117D+01  0.567187D+02  0.503218D+02  0.305796D+02  0.304676D+02
               16 
     16  0.162419D+03
 Multipole matrices IBuc=  518 IX=    3 IJ=           1:
                1             2             3             4             5 
      1  0.588083D+02
      2  0.138222D+02  0.588083D+02
      3  0.000000D+00  0.000000D+00  0.588083D+02
      4  0.000000D+00  0.000000D+00  0.000000D+00  0.588083D+02
      5  0.579343D-01  0.739815D+00  0.000000D+00  0.000000D+00  0.588083D+02
      6  0.342825D+01  0.287976D+02 -0.505564D+01 -0.189586D+02 -0.160916D+02
      7  0.314462D+01  0.276616D+02 -0.166811D+02  0.178726D+02 -0.491919D+01
      8  0.414216D+01  0.320491D+02  0.255038D+02  0.967387D+01 -0.138402D+01
      9  0.167443D-05  0.144738D+01 -0.557499D+00 -0.794014D+00  0.228225D+01
     10  0.146027D+01  0.172583D+02 -0.408376D+01 -0.581626D+01  0.169086D+02
     11  0.547194D+00  0.472274D+01  0.797291D+01 -0.200680D+01  0.581739D+01
     12  0.779337D+00  0.672633D+01 -0.200680D+01  0.652377D+01  0.828537D+01
     13 -0.223737D+01 -0.191348D+02  0.571982D+01  0.814642D+01 -0.142348D+02
     14  0.367594D+00  0.612467D+01  0.109433D+01 -0.445029D+01  0.572637D+01
     15  0.327488D+00  0.557764D+01 -0.416650D+01 -0.265737D+01  0.459356D+01
     16  0.286029D+00  0.505575D+01 -0.570608D+00  0.963368D+00  0.611017D+01
                6             7             8             9            10 
      6  0.575800D+02
      7  0.121632D+02  0.583925D+02
      8  0.123371D+02  0.123810D+02  0.586949D+02
      9  0.460142D+00  0.461761D+00  0.467964D+00  0.613594D+02
     10  0.733733D+01  0.740172D+01  0.749098D+01  0.152394D+02  0.613594D+02
     11  0.589408D+00 -0.169266D+01  0.556343D+01  0.000000D+00  0.000000D+00
     12 -0.126949D+01  0.558120D+01  0.370896D+01  0.000000D+00  0.000000D+00
     13 -0.897937D+01 -0.709373D+01 -0.644755D+01  0.718555D-01  0.838744D+00
     14  0.422388D+01  0.155755D+01  0.424920D+01  0.471901D+01  0.334754D+02
     15  0.428071D+01  0.422883D+01  0.159182D+01  0.471347D+01  0.333703D+02
     16  0.130021D+01  0.377044D+01  0.378687D+01  0.392667D+01  0.308554D+02
               11            12            13            14            15 
     11  0.613594D+02
     12  0.000000D+00  0.613594D+02
     13  0.000000D+00  0.000000D+00  0.613594D+02
     14  0.192443D+02 -0.229099D+02  0.650299D+01  0.617374D+02
     15 -0.286208D+02 -0.103522D+02  0.130696D+01  0.130521D+02  0.614161D+02
     16  0.366927D+01  0.216293D+02  0.196702D+02  0.118214D+02  0.117195D+02
               16 
     16  0.627066D+02
 Fermi contact integrals: 
                 1             2             3             4             5 
      1   0.783766D+01  0.000000D+00  0.000000D+00  0.000000D+00  0.000000D+00
      2   0.260206D+00  0.788920D-01  0.715888D-01  0.972054D-01  0.219948D-01
      3   0.000000D+00 -0.266744D-01 -0.810302D-01  0.158235D+00 -0.863324D-02
      4   0.000000D+00 -0.100029D+00  0.868180D-01  0.600203D-01 -0.122958D-01
      5   0.000000D+00 -0.866917D-01 -0.254666D-01 -0.109128D-01  0.353178D-01
      6   0.722855D-01  0.628247D+00  0.172122D-01  0.175079D-01  0.709375D-02
      7   0.660258D-01  0.172122D-01  0.628247D+00  0.174203D-01  0.711584D-02
      8   0.880264D-01  0.175079D-01  0.174203D-01  0.628247D+00  0.721240D-02
      9   0.000000D+00  0.000000D+00  0.000000D+00  0.000000D+00  0.614289D+01
     10   0.303791D-01  0.626758D-02  0.629309D-02  0.640483D-02  0.215555D+00
     11   0.113884D-01  0.817597D-03 -0.233659D-02  0.771438D-02  0.000000D+00
     12   0.162198D-01 -0.176098D-02  0.770444D-02  0.514292D-02  0.000000D+00
     13  -0.465887D-01 -0.125784D-01 -0.991472D-02 -0.906439D-02  0.000000D+00
     14   0.760676D-02  0.339623D-02  0.665157D-03  0.337863D-02  0.745878D-01
     15   0.676411D-02  0.348243D-02  0.338068D-02  0.690080D-03  0.745235D-01
     16   0.588891D-02  0.489309D-03  0.277612D-02  0.278426D-02  0.613901D-01
                 6             7             8 
      1   0.000000D+00  0.000000D+00  0.000000D+00
      2   0.335867D-02  0.275947D-02  0.218675D-02
      3   0.114085D-02 -0.396652D-02 -0.481374D-03
      4  -0.463944D-02 -0.252983D-02  0.812712D-03
      5   0.589437D-02  0.431007D-02  0.510432D-02
      6   0.339623D-02  0.348243D-02  0.489309D-03
      7   0.665157D-03  0.338068D-02  0.277612D-02
      8   0.337863D-02  0.690080D-03  0.278426D-02
      9   0.275187D-05  0.272769D-05  0.000000D+00
     10   0.917324D-01  0.916600D-01  0.766001D-01
     11   0.101848D+00 -0.151784D+00  0.167041D-01
     12  -0.121248D+00 -0.549004D-01  0.984661D-01
     13   0.323328D-01  0.484415D-02  0.879162D-01
     14   0.628247D+00  0.174786D-01  0.148913D-01
     15   0.174786D-01  0.628247D+00  0.147600D-01
     16   0.148913D-01  0.147600D-01  0.628247D+00
 Leave Link  303 at Thu Feb  1 10:57:06 2024, MaxMem=   131072000 cpu:               0.1 elap:               0.0
 (Enter /trinity/shared/software/gaussian/g16_A03/g16/l401.exe)
 Projected New-EHT guess.
 Enter ItEHT:  IZDO=4 IZDPar=0 Conv= 1.00D-06 N=   14
 It=   1                  EEH= -43.5800943512     EQH= 0.000000000000E+00 EH= -43.5800943512    
 JPrj=0 DoOrth=T DoCkMO=T.
 Leave Link  401 at Thu Feb  1 10:57:06 2024, MaxMem=   131072000 cpu:               0.1 elap:               0.1
 (Enter /trinity/shared/software/gaussian/g16_A03/g16/l502.exe)
 Keep J ints in memory in canonical form, NReq=871357.
 FoFCou: FMM=F IPFlag=           0 FMFlag=           0 FMFlg1=           0
         NFxFlg=           0 DoJE=F BraDBF=F KetDBF=F FulRan=T
         wScrn=  0.000000 ICntrl=       600 IOpCl=  0 I1Cent=           0 NGrid=           0
         NMat0=    1 NMatS0=    136 NMatT0=    0 NMatD0=    1 NMtDS0=    0 NMtDT0=    0
 Symmetry not used in FoFCou.
 Two-electron integral symmetry not used.
 Closed shell SCF:
 Using DIIS extrapolation, IDIIS=  1040.
 NGot=   131072000 LenX=   131061156 LenY=   131060274
 Requested convergence on RMS density matrix=1.00D-08 within 128 cycles.
 Requested convergence on MAX density matrix=1.00D-06.
 Requested convergence on             energy=1.00D-06.
 No special actions if energy rises.
 Integral accuracy reduced to 1.0D-05 until final iterations.

 Cycle   1  Pass 0  IDiag  1:
 E=  490.968514809372    
 DIIS: error= 1.28D+00 at cycle   1 NSaved=   1.
 NSaved= 1 IEnMin= 1 EnMin=  490.968514809372     IErMin= 1 ErrMin= 1.28D+00
 ErrMax= 1.28D+00  0.00D+00 EMaxC= 1.00D-01 BMatC= 5.57D+01 BMatP= 5.57D+01
 IDIUse=3 WtCom= 0.00D+00 WtEn= 1.00D+00
 Coeff-Com:  0.100D+01
 Coeff-En:   0.100D+01
 Coeff:      0.100D+01
 Gap=    -0.566 Goal=   None    Shift=    0.000
 GapD=   -0.566 DampG=0.250 DampE=0.250 DampFc=0.2500 IDamp=-1.
 Damping current iteration by 2.50D-01
 RMSDP=3.33D-01 MaxDP=1.81D+00              OVMax= 0.00D+00

 Cycle   2  Pass 0  IDiag  1:
 E=  480.225398181969     Delta-E=      -10.743116627403 Rises=F Damp=T
 DIIS: error= 9.80D-01 at cycle   2 NSaved=   2.
 NSaved= 2 IEnMin= 2 EnMin=  480.225398181969     IErMin= 2 ErrMin= 9.80D-01
 ErrMax= 9.80D-01  0.00D+00 EMaxC= 1.00D-01 BMatC= 3.08D+01 BMatP= 5.57D+01
 IDIUse=3 WtCom= 0.00D+00 WtEn= 1.00D+00
 Coeff-Com: -0.283D+01 0.383D+01
 Coeff-En:   0.000D+00 0.100D+01
 Coeff:      0.000D+00 0.100D+01
 Gap=     0.339 Goal=   None    Shift=    0.000
 RMSDP=2.46D-01 MaxDP=1.32D+00 DE=-1.07D+01 OVMax= 0.00D+00

 Cycle   3  Pass 0  IDiag  1:
 E=  452.771413353912     Delta-E=      -27.453984828058 Rises=F Damp=F
 DIIS: error= 6.49D-02 at cycle   3 NSaved=   3.
 NSaved= 3 IEnMin= 3 EnMin=  452.771413353912     IErMin= 3 ErrMin= 6.49D-02
 ErrMax= 6.49D-02  0.00D+00 EMaxC= 1.00D-01 BMatC= 1.58D-01 BMatP= 3.08D+01
 IDIUse=3 WtCom= 3.51D-01 WtEn= 6.49D-01
 Coeff-Com:  0.582D-01-0.629D-01 0.100D+01
 Coeff-En:   0.000D+00 0.000D+00 0.100D+01
 Coeff:      0.204D-01-0.221D-01 0.100D+01
 Gap=    -1.084 Goal=   None    Shift=    0.000
 RMSDP=2.17D-01 MaxDP=1.94D+00 DE=-2.75D+01 OVMax= 0.00D+00

 Cycle   4  Pass 0  IDiag  1:
 E=  452.083277942557     Delta-E=       -0.688135411355 Rises=F Damp=F
 DIIS: error= 7.31D-02 at cycle   4 NSaved=   4.
 NSaved= 4 IEnMin= 4 EnMin=  452.083277942557     IErMin= 3 ErrMin= 6.49D-02
 ErrMax= 7.31D-02  0.00D+00 EMaxC= 1.00D-01 BMatC= 1.67D-01 BMatP= 1.58D-01
 IDIUse=3 WtCom= 2.69D-01 WtEn= 7.31D-01
 Coeff-Com: -0.378D-01 0.562D-01 0.497D+00 0.484D+00
 Coeff-En:   0.000D+00 0.000D+00 0.300D+00 0.700D+00
 Coeff:     -0.102D-01 0.151D-01 0.353D+00 0.642D+00
 Gap=     0.960 Goal=   None    Shift=    0.000
 RMSDP=6.77D-02 MaxDP=3.29D-01 DE=-6.88D-01 OVMax= 0.00D+00

 Cycle   5  Pass 0  IDiag  1:
 E=  451.790104436158     Delta-E=       -0.293173506398 Rises=F Damp=F
 DIIS: error= 1.41D-02 at cycle   5 NSaved=   5.
 NSaved= 5 IEnMin= 5 EnMin=  451.790104436158     IErMin= 5 ErrMin= 1.41D-02
 ErrMax= 1.41D-02  0.00D+00 EMaxC= 1.00D-01 BMatC= 9.18D-03 BMatP= 1.58D-01
 IDIUse=3 WtCom= 8.59D-01 WtEn= 1.41D-01
 Coeff-Com:  0.335D-01-0.438D-01 0.164D+00-0.306D-01 0.877D+00
 Coeff-En:   0.000D+00 0.000D+00 0.102D+00 0.000D+00 0.898D+00
 Coeff:      0.288D-01-0.377D-01 0.156D+00-0.263D-01 0.880D+00
 Gap=     0.055 Goal=   None    Shift=    0.000
 RMSDP=8.32D-02 MaxDP=5.94D-01 DE=-2.93D-01 OVMax= 0.00D+00

 Cycle   6  Pass 0  IDiag  1:
 E=  451.775785415707     Delta-E=       -0.014319020451 Rises=F Damp=F
 DIIS: error= 2.04D-02 at cycle   6 NSaved=   6.
 NSaved= 6 IEnMin= 6 EnMin=  451.775785415707     IErMin= 5 ErrMin= 1.41D-02
 ErrMax= 2.04D-02  0.00D+00 EMaxC= 1.00D-01 BMatC= 1.53D-02 BMatP= 9.18D-03
 IDIUse=2 WtCom= 0.00D+00 WtEn= 1.00D+00
 Coeff-En:   0.000D+00 0.000D+00 0.000D+00 0.000D+00 0.448D+00 0.552D+00
 Coeff:      0.000D+00 0.000D+00 0.000D+00 0.000D+00 0.448D+00 0.552D+00
 Gap=     0.086 Goal=   None    Shift=    0.000
 RMSDP=4.74D-02 MaxDP=3.78D-01 DE=-1.43D-02 OVMax= 0.00D+00

 Cycle   7  Pass 0  IDiag  1:
 E=  451.745200090659     Delta-E=       -0.030585325048 Rises=F Damp=F
 DIIS: error= 7.40D-03 at cycle   7 NSaved=   7.
 NSaved= 7 IEnMin= 7 EnMin=  451.745200090659     IErMin= 7 ErrMin= 7.40D-03
 ErrMax= 7.40D-03  0.00D+00 EMaxC= 1.00D-01 BMatC= 1.59D-03 BMatP= 9.18D-03
 IDIUse=3 WtCom= 9.26D-01 WtEn= 7.40D-02
 Coeff-Com: -0.797D-03 0.105D-02-0.309D-02-0.131D-01 0.891D-01 0.262D+00
 Coeff-Com:  0.665D+00
 Coeff-En:   0.000D+00 0.000D+00 0.000D+00 0.000D+00 0.000D+00 0.234D+00
 Coeff-En:   0.766D+00
 Coeff:     -0.738D-03 0.968D-03-0.286D-02-0.121D-01 0.825D-01 0.260D+00
 Coeff:      0.672D+00
 Gap=     0.080 Goal=   None    Shift=    0.000
 RMSDP=2.67D-02 MaxDP=2.04D-01 DE=-3.06D-02 OVMax= 0.00D+00

 Cycle   8  Pass 0  IDiag  1:
 E=  451.745311760124     Delta-E=        0.000111669465 Rises=F Damp=F
 DIIS: error= 7.69D-03 at cycle   8 NSaved=   8.
 NSaved= 8 IEnMin= 7 EnMin=  451.745200090659     IErMin= 7 ErrMin= 7.40D-03
 ErrMax= 7.69D-03  0.00D+00 EMaxC= 1.00D-01 BMatC= 1.97D-03 BMatP= 1.59D-03
 IDIUse=3 WtCom= 9.26D-01 WtEn= 7.40D-02
 Coeff-Com:  0.212D-03-0.293D-03-0.363D-02-0.348D-02 0.161D-01-0.899D-01
 Coeff-Com:  0.420D+00 0.661D+00
 Coeff-En:   0.000D+00 0.000D+00 0.000D+00 0.000D+00 0.000D+00 0.000D+00
 Coeff-En:   0.503D+00 0.497D+00
 Coeff:      0.197D-03-0.271D-03-0.337D-02-0.322D-02 0.149D-01-0.833D-01
 Coeff:      0.427D+00 0.648D+00
 Gap=     0.085 Goal=   None    Shift=    0.000
 RMSDP=8.15D-03 MaxDP=6.50D-02 DE= 1.12D-04 OVMax= 0.00D+00

 Cycle   9  Pass 0  IDiag  1:
 E=  451.741018570374     Delta-E=       -0.004293189750 Rises=F Damp=F
 DIIS: error= 2.76D-03 at cycle   9 NSaved=   9.
 NSaved= 9 IEnMin= 9 EnMin=  451.741018570374     IErMin= 9 ErrMin= 2.76D-03
 ErrMax= 2.76D-03  0.00D+00 EMaxC= 1.00D-01 BMatC= 2.54D-04 BMatP= 1.59D-03
 IDIUse=3 WtCom= 9.72D-01 WtEn= 2.76D-02
 Coeff-Com: -0.498D-04 0.657D-04-0.438D-05 0.111D-03 0.927D-02-0.469D-01
 Coeff-Com:  0.868D-01-0.180D+00 0.113D+01
 Coeff-En:   0.000D+00 0.000D+00 0.000D+00 0.000D+00 0.000D+00 0.000D+00
 Coeff-En:   0.231D+00 0.000D+00 0.769D+00
 Coeff:     -0.484D-04 0.639D-04-0.426D-05 0.108D-03 0.902D-02-0.456D-01
 Coeff:      0.908D-01-0.175D+00 0.112D+01
 Gap=     0.088 Goal=   None    Shift=    0.000
 RMSDP=5.11D-03 MaxDP=3.94D-02 DE=-4.29D-03 OVMax= 0.00D+00

 Cycle  10  Pass 0  IDiag  1:
 E=  451.740333900390     Delta-E=       -0.000684669985 Rises=F Damp=F
 DIIS: error= 6.85D-05 at cycle  10 NSaved=  10.
 NSaved=10 IEnMin=10 EnMin=  451.740333900390     IErMin=10 ErrMin= 6.85D-05
 ErrMax= 6.85D-05  0.00D+00 EMaxC= 1.00D-01 BMatC= 1.69D-07 BMatP= 2.54D-04
 IDIUse=1 WtCom= 1.00D+00 WtEn= 0.00D+00
 Coeff-Com:  0.395D-06-0.442D-06 0.173D-04-0.122D-04 0.181D-03-0.391D-03
 Coeff-Com:  0.792D-02-0.231D-01 0.111D+00 0.905D+00
 Coeff:      0.395D-06-0.442D-06 0.173D-04-0.122D-04 0.181D-03-0.391D-03
 Coeff:      0.792D-02-0.231D-01 0.111D+00 0.905D+00
 Gap=     0.088 Goal=   None    Shift=    0.000
 RMSDP=1.38D-04 MaxDP=1.02D-03 DE=-6.85D-04 OVMax= 0.00D+00

 Cycle  11  Pass 0  IDiag  1:
 E=  451.740333415380     Delta-E=       -0.000000485010 Rises=F Damp=F
 DIIS: error= 6.95D-07 at cycle  11 NSaved=  11.
 NSaved=11 IEnMin=11 EnMin=  451.740333415380     IErMin=11 ErrMin= 6.95D-07
 ErrMax= 6.95D-07  0.00D+00 EMaxC= 1.00D-01 BMatC= 1.68D-11 BMatP= 1.69D-07
 IDIUse=1 WtCom= 1.00D+00 WtEn= 0.00D+00
 Coeff-Com:  0.101D-05-0.134D-05 0.969D-07-0.686D-06 0.354D-04-0.318D-03
 Coeff-Com:  0.184D-02-0.459D-02 0.235D-01 0.144D+00 0.835D+00
 Coeff:      0.101D-05-0.134D-05 0.969D-07-0.686D-06 0.354D-04-0.318D-03
 Coeff:      0.184D-02-0.459D-02 0.235D-01 0.144D+00 0.835D+00
 Gap=     0.088 Goal=   None    Shift=    0.000
 RMSDP=6.55D-07 MaxDP=4.19D-06 DE=-4.85D-07 OVMax= 0.00D+00

 Initial convergence to 1.0D-05 achieved.  Increase integral accuracy.
 Cycle  12  Pass 1  IDiag  1:
 E=  451.740336807654     Delta-E=        0.000003392274 Rises=F Damp=F
 DIIS: error= 9.49D-06 at cycle   1 NSaved=   1.
 NSaved= 1 IEnMin= 1 EnMin=  451.740336807654     IErMin= 1 ErrMin= 9.49D-06
 ErrMax= 9.49D-06  0.00D+00 EMaxC= 1.00D-01 BMatC= 3.12D-09 BMatP= 3.12D-09
 IDIUse=1 WtCom= 1.00D+00 WtEn= 0.00D+00
 Coeff-Com:  0.100D+01
 Coeff:      0.100D+01
 Gap=     0.088 Goal=   None    Shift=    0.000
 RMSDP=6.55D-07 MaxDP=4.19D-06 DE= 3.39D-06 OVMax= 0.00D+00

 Cycle  13  Pass 1  IDiag  1:
 E=  451.740336805137     Delta-E=       -0.000000002517 Rises=F Damp=F
 DIIS: error= 1.57D-06 at cycle   2 NSaved=   2.
 NSaved= 2 IEnMin= 2 EnMin=  451.740336805137     IErMin= 2 ErrMin= 1.57D-06
 ErrMax= 1.57D-06  0.00D+00 EMaxC= 1.00D-01 BMatC= 9.64D-11 BMatP= 3.12D-09
 IDIUse=1 WtCom= 1.00D+00 WtEn= 0.00D+00
 Coeff-Com:  0.744D-01 0.926D+00
 Coeff:      0.744D-01 0.926D+00
 Gap=     0.088 Goal=   None    Shift=    0.000
 RMSDP=1.75D-05 MaxDP=1.33D-04 DE=-2.52D-09 OVMax= 0.00D+00

 Cycle  14  Pass 1  IDiag  1:
 E=  451.740336806730     Delta-E=        0.000000001593 Rises=F Damp=F
 DIIS: error= 8.16D-06 at cycle   3 NSaved=   3.
 NSaved= 3 IEnMin= 2 EnMin=  451.740336805137     IErMin= 2 ErrMin= 1.57D-06
 ErrMax= 8.16D-06  0.00D+00 EMaxC= 1.00D-01 BMatC= 2.14D-09 BMatP= 9.64D-11
 IDIUse=1 WtCom= 1.00D+00 WtEn= 0.00D+00
 Coeff-Com:  0.374D-01 0.806D+00 0.157D+00
 Coeff:      0.374D-01 0.806D+00 0.157D+00
 Gap=     0.088 Goal=   None    Shift=    0.000
 RMSDP=1.52D-05 MaxDP=1.16D-04 DE= 1.59D-09 OVMax= 0.00D+00

 Cycle  15  Pass 1  IDiag  1:
 E=  451.740336804914     Delta-E=       -0.000000001816 Rises=F Damp=F
 DIIS: error= 2.54D-07 at cycle   4 NSaved=   4.
 NSaved= 4 IEnMin= 4 EnMin=  451.740336804914     IErMin= 4 ErrMin= 2.54D-07
 ErrMax= 2.54D-07  0.00D+00 EMaxC= 1.00D-01 BMatC= 2.35D-12 BMatP= 9.64D-11
 IDIUse=1 WtCom= 1.00D+00 WtEn= 0.00D+00
 Coeff-Com:  0.289D-02 0.115D+00 0.477D-01 0.834D+00
 Coeff:      0.289D-02 0.115D+00 0.477D-01 0.834D+00
 Gap=     0.088 Goal=   None    Shift=    0.000
 RMSDP=6.41D-07 MaxDP=4.76D-06 DE=-1.82D-09 OVMax= 0.00D+00

 Cycle  16  Pass 1  IDiag  1:
 E=  451.740336804907     Delta-E=       -0.000000000007 Rises=F Damp=F
 DIIS: error= 6.00D-08 at cycle   5 NSaved=   5.
 NSaved= 5 IEnMin= 5 EnMin=  451.740336804907     IErMin= 5 ErrMin= 6.00D-08
 ErrMax= 6.00D-08  0.00D+00 EMaxC= 1.00D-01 BMatC= 1.20D-13 BMatP= 2.35D-12
 IDIUse=1 WtCom= 1.00D+00 WtEn= 0.00D+00
 Coeff-Com:  0.524D-04 0.158D-01 0.669D-02 0.267D+00 0.711D+00
 Coeff:      0.524D-04 0.158D-01 0.669D-02 0.267D+00 0.711D+00
 Gap=     0.088 Goal=   None    Shift=    0.000
 RMSDP=1.19D-07 MaxDP=8.44D-07 DE=-6.54D-12 OVMax= 0.00D+00

 Cycle  17  Pass 1  IDiag  1:
 E=  451.740336804907     Delta-E=       -0.000000000000 Rises=F Damp=F
 DIIS: error= 1.42D-09 at cycle   6 NSaved=   6.
 NSaved= 6 IEnMin= 6 EnMin=  451.740336804907     IErMin= 6 ErrMin= 1.42D-09
 ErrMax= 1.42D-09  0.00D+00 EMaxC= 1.00D-01 BMatC= 9.82D-17 BMatP= 1.20D-13
 IDIUse=1 WtCom= 1.00D+00 WtEn= 0.00D+00
 Coeff-Com: -0.176D-04 0.236D-02 0.943D-03 0.487D-01 0.144D+00 0.804D+00
 Coeff:     -0.176D-04 0.236D-02 0.943D-03 0.487D-01 0.144D+00 0.804D+00
 Gap=     0.088 Goal=   None    Shift=    0.000
 RMSDP=1.51D-09 MaxDP=8.98D-09 DE=-4.55D-13 OVMax= 0.00D+00

 SCF Done:  E(RB-P86) =   451.740336805     A.U. after   17 cycles
            NFock= 17  Conv=0.15D-08     -V/T=-3.6486
 KE= 9.717737611680D+01 PE= 1.794378340865D+00 EE= 7.264324102368D+01
 Leave Link  502 at Thu Feb  1 10:57:10 2024, MaxMem=   131072000 cpu:               3.7 elap:               3.9
 (Enter /trinity/shared/software/gaussian/g16_A03/g16/l601.exe)
 Copying SCF densities to generalized density rwf, IOpCl= 0 IROHF=0.

 **********************************************************************

            Population analysis using the SCF density.

 **********************************************************************

 Alpha  occ. eigenvalues --    3.65992  10.04850  13.36834  15.63639  16.44292
 Alpha  occ. eigenvalues --   16.67530  17.00329  17.13713  17.47500
 Alpha virt. eigenvalues --   17.56260  18.16146  18.59021  20.76721  21.14809
 Alpha virt. eigenvalues --   23.29573  35.71752
     Molecular Orbital Coefficients:
                           1         2         3         4         5
                           O         O         O         O         O
     Eigenvalues --     3.65992  10.04850  13.36834  15.63639  16.44292
   1 1   N  1S          0.99051   0.00127  -0.00573  -0.22937   0.06444
   2        2S          0.04757  -0.01139  -0.26556   0.94179  -0.42609
   3        2PX        -0.00012   0.00323   0.03402   0.00711  -0.27832
   4        2PY        -0.00562   0.00694   0.10705  -0.27375   0.18912
   5        2PZ        -0.01091  -0.00730   0.06461  -0.65681   0.04620
   6 2   H  1S         -0.01474  -0.00197   1.16481  -0.57392   0.07705
   7 3   H  1S         -0.00804  -0.00045  -0.00370   0.13797   0.89179
   8 4   H  1S         -0.00960  -0.00048  -0.00723   0.06797  -0.12232
   9 5   C  1S          0.00043   0.98825   0.00229  -0.00443   0.00891
  10        2S         -0.00494   0.05456  -0.01623   0.02467  -0.01373
  11        2PX        -0.00067  -0.00760   0.00168   0.00527   0.05821
  12        2PY        -0.00022  -0.03738   0.00711   0.00782  -0.02381
  13        2PZ         0.00374  -0.03032   0.00989  -0.00925   0.02366
  14 6   H  1S          0.00075  -0.01867  -0.00315  -0.00702  -0.04684
  15 7   H  1S          0.00079  -0.01948  -0.00247  -0.00575   0.02905
  16 8   H  1S          0.00033   0.00784  -0.00172  -0.00174  -0.00911
                           6         7         8         9        10
                           O         O         O         O         V
     Eigenvalues --    16.67530  17.00329  17.13713  17.47500  17.56260
   1 1   N  1S          0.08031   0.05931   0.00707  -0.02974   0.03996
   2        2S         -0.44038  -0.49059  -0.01258   0.31517  -0.45830
   3        2PX         0.53659   0.64099  -0.25664   0.29587  -0.77402
   4        2PY         0.59512  -0.41952   0.62701   0.06363  -0.09796
   5        2PZ        -0.29146   0.29797  -0.33781  -0.11187   0.21505
   6 2   H  1S          0.23640  -0.00458   0.05459  -0.00294   0.00317
   7 3   H  1S          0.09409   0.76947  -0.47985   0.04078  -0.13241
   8 4   H  1S          0.19555   0.20772   0.03860  -0.66905   1.19321
   9 5   C  1S          0.05729  -0.06196  -0.09051   0.02635   0.01291
  10        2S          0.02308  -0.00797   0.05886  -0.10530  -0.03890
  11        2PX         0.00904  -0.08016  -0.01505  -0.19585  -0.16110
  12        2PY         0.11170  -0.12581  -0.12740   0.14578   0.01568
  13        2PZ         0.06339  -0.14248  -0.28029   0.02333   0.06102
  14 6   H  1S         -0.10568   0.36991   0.52688   0.86897   0.34516
  15 7   H  1S         -0.12073   0.16342   0.44672  -0.72938  -0.52728
  16 8   H  1S         -0.03325   0.02006   0.03340  -0.00464  -0.01220
                          11        12        13        14        15
                           V         V         V         V         V
     Eigenvalues --    18.16146  18.59021  20.76721  21.14809  23.29573
   1 1   N  1S         -0.00928  -0.17612   0.03333   0.02494   0.01204
   2        2S         -0.05190   0.86085  -0.29376  -0.23340  -0.10692
   3        2PX         0.17958   0.14910   0.12478  -0.06650  -0.00344
   4        2PY         0.36589   0.52007   0.05292   0.07976  -0.03525
   5        2PZ        -0.01764   0.76090  -0.20161  -0.15776  -0.08650
   6 2   H  1S          0.09728   0.19643   0.00321   0.00201   0.01402
   7 3   H  1S         -0.03951  -0.17797   0.00611  -0.01206   0.00162
   8 4   H  1S         -0.15429  -0.28768  -0.01863   0.04334   0.01601
   9 5   C  1S         -0.23232   0.07438   0.00148   0.00557  -0.21076
  10        2S          1.29425  -0.52619  -0.07431  -0.06985   1.05839
  11        2PX        -0.16765  -0.00666  -0.44486   1.19015   0.15649
  12        2PY        -0.65484   0.10144   0.83915   0.13316   0.59891
  13        2PZ        -0.41929   0.22341  -0.79681  -0.42184   0.54846
  14 6   H  1S         -0.73323   0.17157   0.50727  -0.24792  -0.13772
  15 7   H  1S         -0.89665   0.20291  -0.05737   0.54547  -0.08633
  16 8   H  1S          0.07682  -0.00650  -0.01206   0.01038  -0.40691
                          16
                           V
     Eigenvalues --    35.71752
   1 1   N  1S         -0.00126
   2        2S          0.01982
   3        2PX        -0.00149
   4        2PY         0.00163
   5        2PZ         0.00645
   6 2   H  1S         -0.00746
   7 3   H  1S         -0.01444
   8 4   H  1S         -0.01104
   9 5   C  1S          0.04303
  10        2S         -0.52325
  11        2PX        -0.04406
  12        2PY        -0.26632
  13        2PZ        -0.23623
  14 6   H  1S          0.00638
  15 7   H  1S          0.01044
  16 8   H  1S          1.31411
          Condensed to atoms (all electrons):
               1          2          3          4          5          6
     1  N   10.633502  -1.497486  -1.172062  -0.260625  -0.115319  -0.007255
     2  H   -1.497486   3.502427  -0.009336  -0.003124  -0.012573  -0.000523
     3  H   -1.172062  -0.009336   3.294514   0.013884  -0.030223   0.000756
     4  H   -0.260625  -0.003124   0.013884   1.100471   0.037012  -0.070509
     5  C   -0.115319  -0.012573  -0.030223   0.037012   2.514048  -0.254889
     6  H   -0.007255  -0.000523   0.000756  -0.070509  -0.254889   2.366618
     7  H   -0.016055  -0.000009  -0.014766   0.027123   0.037299  -0.138275
     8  H    0.001962  -0.000339  -0.001529   0.000382  -0.015148   0.009424
               7          8
     1  N   -0.016055   0.001962
     2  H   -0.000009  -0.000339
     3  H   -0.014766  -0.001529
     4  H    0.027123   0.000382
     5  C    0.037299  -0.015148
     6  H   -0.138275   0.009424
     7  H    1.548202   0.009515
     8  H    0.009515   0.005591
 Mulliken charges:
               1
     1  N   -0.566662
     2  H   -0.979037
     3  H   -1.081239
     4  H    0.155385
     5  C    3.839792
     6  H   -0.905347
     7  H   -0.453034
     8  H    0.990142
 Sum of Mulliken charges =   1.00000
 Mulliken charges with hydrogens summed into heavy atoms:
               1
     1  N   -2.471552
     5  C    3.471552
 Electronic spatial extent (au):  <R**2>=         678056.6362
 Charge=              1.0000 electrons
 Dipole moment (field-independent basis, Debye):
    X=            230.7231    Y=            414.7707    Z=            183.3347  Tot=            508.8020
 Quadrupole moment (field-independent basis, Debye-Ang):
   XX=          11065.1392   YY=          35789.0936   ZZ=           6786.6736
   XY=          19927.3142   XZ=           8791.4977   YZ=          15808.0147
 Traceless Quadrupole moment (field-independent basis, Debye-Ang):
   XX=          -6815.1630   YY=          17908.7915   ZZ=         -11093.6285
   XY=          19927.3142   XZ=           8791.4977   YZ=          15808.0147
 Octapole moment (field-independent basis, Debye-Ang**2):
  XXX=         529836.5326  YYY=        3085810.4842  ZZZ=         245778.0808  XYY=        1719780.1130
  XXY=         955878.0672  XXZ=         421028.8314  XZZ=         325049.4792  YZZ=         584580.7629
  YYZ=        1362194.0954  XYZ=         758172.3126
 Hexadecapole moment (field-independent basis, Debye-Ang**3):
 XXXX=       25331206.5154 YYYY=      265872244.6151 ZZZZ=        8755668.1590 XXXY=       45780774.0647
 XXXZ=       20137264.6053 YYYX=      148311233.1669 YYYZ=      117310563.8587 ZZZX=       11760951.2871
 ZZZY=       21154744.2214 XXYY=       82511560.5231 XXZZ=       15551036.9541 YYZZ=       50327394.6801
 XXYZ=       36315733.2035 YYXZ=       65343498.9926 ZZXY=       28002857.5774
 N-N= 2.801253413236D+02 E-N= 1.794378312031D+00  KE= 9.717737611680D+01
 Orbital energies and kinetic energies (alpha):
                                 1                 2
   1         O                 3.659923         21.565288
   2         O                10.048498         15.515856
   3         O                13.368341          0.948054
   4         O                15.636392          2.685012
   5         O                16.442921          1.134866
   6         O                16.675304          1.832611
   7         O                17.003286          1.889536
   8         O                17.137131          1.713039
   9         O                17.474998          1.304426
  10         V                17.562596          1.964751
  11         V                18.161463          2.917240
  12         V                18.590205          2.861844
  13         V                20.767206          2.145806
  14         V                21.148085          2.172546
  15         V                23.295729          2.141019
  16         V                35.717519          1.257991
 Total kinetic energy from orbitals= 9.717737611680D+01
 No NMR shielding tensors so no spin-rotation constants.
 Leave Link  601 at Thu Feb  1 10:57:11 2024, MaxMem=   131072000 cpu:               0.1 elap:               0.1
 (Enter /trinity/shared/software/gaussian/g16_A03/g16/l602.exe)
 FitSet:  NAtFit=     8 NAtPot=     8 NAtFrz=     0 MDM=    12 TotChg=   1.00000
 Merz-Kollman atomic radii used.

 **********************************************************************

            Electrostatic Properties Using The SCF Density

 **********************************************************************

       Atomic Center    1 is at  47.900000 85.620000 31.120000
       Atomic Center    2 is at  47.700000 84.870000 30.470000
       Atomic Center    3 is at  47.200000 86.370000 30.900000
       Atomic Center    4 is at  48.770000 85.950000 31.060000
       Atomic Center    5 is at  47.570000 85.150000 32.470000
       Atomic Center    6 is at  48.200000 84.400000 32.670000
       Atomic Center    7 is at  46.630000 84.810000 32.500000
       Atomic Center    8 is at  47.705453 85.948457 33.182908
      Read-in Center  461 is at  46.950000 86.440000 34.370000
      Read-in Center  462 is at  48.860000 87.010000 33.340000
      Read-in Center  463 is at  49.520000 86.780000 32.620000
      Read-in Center  464 is at  49.140000 88.150000 34.210000
      Read-in Center  465 is at  49.290000 87.770000 35.130000
      Read-in Center  466 is at  50.380000 88.900000 33.760000
      Read-in Center  467 is at  50.570000 89.640000 34.390000
      Read-in Center  468 is at  51.160000 88.270000 33.740000
      Read-in Center  469 is at  50.180000 89.420000 32.500000
      Read-in Center  470 is at  50.950000 89.890000 32.220000
      Read-in Center  471 is at  47.950000 89.090000 34.220000
      Read-in Center  472 is at  47.700000 89.580000 33.380000
      Read-in Center  473 is at  47.290000 89.260000 35.250000
      Read-in Center  474 is at  48.341181 86.148024 32.824243
      Read-in Center  475 is at  45.558819 86.731976 35.915757
      Read-in Center  476 is at  47.125901 85.843424 33.544939
      Read-in Center  477 is at  50.594099 88.176576 33.135061
     452 points will be used for fitting atomic charges
 Fitting point charges to electrostatic potential
 Charges from ESP fit, RMS=   0.00657 RRMS=   0.02434:
 ESP charges:
               1
     1  N    0.394390
     2  H   -1.857430
     3  H   -1.305641
     4  H    0.037455
     5  C    4.638074
     6  H   -1.266661
     7  H   -0.746822
     8  H    1.106634
 Sum of ESP charges =   1.00000
 ESP charges with hydrogens summed into heavy atoms:
               1
     1  N   -2.731226
     5  C    3.731226
 Charge=   1.00000 Dipole=   230.7490   414.9010   183.3031 Tot=   508.9086
 -----------------------------------------------------------------

              Electrostatic Properties (Atomic Units)

 -----------------------------------------------------------------
    Center     Electric         -------- Electric Field --------
               Potential          X             Y             Z
 -----------------------------------------------------------------
    1 Atom    -18.492286     -0.224742     -0.451985     -1.141912
    2 Atom     -2.478783     -0.097260     -0.264244     -0.430809
    3 Atom     -2.130385     -0.380791      0.290549     -0.482945
    4 Atom     -0.921972      0.290278     -0.034839     -0.472359
    5 Atom    -12.031624     -0.088737     -0.554137     -0.480116
    6 Atom     -0.724057      0.665367     -1.031266      0.005037
    7 Atom     -0.353594     -0.921966     -0.523223     -0.226084
    8 Atom      1.115588      0.095798      0.601091      0.530743
  461           0.659794     -0.105856      0.108364      0.189531
  462           0.610025      0.149640      0.169864      0.034847
  463           0.464667      0.139436      0.084498     -0.040972
  464           0.304627      0.032727      0.057443      0.019718
  465           0.281848      0.028471      0.036769      0.032438
  466           0.190990      0.020676      0.025499     -0.000729
  467           0.154521      0.012436      0.017603      0.001749
  468           0.183131      0.024637      0.018066     -0.000926
  469           0.156979      0.012467      0.021144     -0.012227
  470           0.121872      0.008642      0.012206     -0.008926
  471           0.241592      0.001987      0.047313      0.007797
  472           0.200105     -0.002227      0.038171     -0.007905
  473           0.204530     -0.004169      0.030547      0.013478
  474           1.511638      0.743819      0.522831     -0.100842
  475           0.248847     -0.028224      0.013790      0.032763
  476           1.537370     -0.678927      0.147674      0.676955
  477           0.212601      0.031421      0.027312     -0.007857
 -----------------------------------------------------------------
 Leave Link  602 at Thu Feb  1 10:57:11 2024, MaxMem=   131072000 cpu:               0.0 elap:               0.1
 (Enter /trinity/shared/software/gaussian/g16_A03/g16/l701.exe)
 ... and contract with generalized density number  0.
 Compute integral first derivatives.
 Leave Link  701 at Thu Feb  1 10:57:11 2024, MaxMem=   131072000 cpu:               0.1 elap:               0.1
 (Enter /trinity/shared/software/gaussian/g16_A03/g16/l702.exe)
 L702 exits ... SP integral derivatives will be done elsewhere.
 Leave Link  702 at Thu Feb  1 10:57:11 2024, MaxMem=   131072000 cpu:               0.0 elap:               0.0
 (Enter /trinity/shared/software/gaussian/g16_A03/g16/l703.exe)
 Integral derivatives from FoFJK, PRISM(SPDF).
 Compute integral first derivatives, UseDBF=F ICtDFT=           0.
 Calling FoFJK, ICntrl=      2527 FMM=F ISym2X=0 I1Cent= 0 IOpClX= 0 NMat=1 NMatS=1 NMatT=0.
 FoFJK:  IHMeth= 1 ICntrl=    2527 DoSepK=F KAlg= 0 I1Cent=           0 FoldK=F
 IRaf=         0 NMat=       1 IRICut=       1 DoRegI=T DoRafI=F ISym2E= 0 IDoP0=0 IntGTp=1.
 FoFCou: FMM=F IPFlag=           0 FMFlag=      100000 FMFlg1=         800
         NFxFlg=           0 DoJE=F BraDBF=F KetDBF=F FulRan=T
         wScrn=  0.000000 ICntrl=      2527 IOpCl=  0 I1Cent=           0 NGrid=           0
         NMat0=    1 NMatS0=      1 NMatT0=    0 NMatD0=    1 NMtDS0=    0 NMtDT0=    0
 Symmetry not used in FoFCou.
 Leave Link  703 at Thu Feb  1 10:57:12 2024, MaxMem=   131072000 cpu:               0.8 elap:               0.8
 (Enter /trinity/shared/software/gaussian/g16_A03/g16/l716.exe)
 Dipole        = 9.07734688D+01 1.63183357D+02 7.21294265D+01
 -------------------------------------------------------------------
 Center     Atomic                   Forces (Hartrees/Bohr)
 Number     Number              X              Y              Z
 -------------------------------------------------------------------
      1        7           0.490711029    0.087390006    0.815519594
      2        1          -0.271456852   -1.336950309   -1.794210707
      3        1          -1.220782455    0.196966565   -2.350609973
      4        1           0.308118270    0.255574750    0.298560217
      5        6           2.040206312   10.344028385    9.838779465
      6        1          -0.083657190   -1.420498231   -0.909106429
      7        1          -0.089066113   -0.461595817   -0.557508089
      8        1           0.962166499    6.417112046    6.051860325
 -------------------------------------------------------------------
 Cartesian Forces:  Max    10.344028385 RMS     3.555358914
 Force constants in Cartesian coordinates: 
                1             2             3             4             5 
      1  0.104986D+01
      2  0.104802D+00  0.872447D+00
      3  0.227246D-02  0.435362D-01  0.806139D+00
      4 -0.406466D-01 -0.533296D-01 -0.323673D-01  0.224038D+00
      5 -0.471059D-01 -0.212093D+00 -0.164810D+00  0.436557D-01  0.378467D+00
      6 -0.462291D-01 -0.195604D+00 -0.201174D+00  0.513955D-01  0.165307D+00
      7 -0.169033D+00  0.153222D+00 -0.390690D-01  0.790285D-01  0.145241D-01
      8  0.146330D+00 -0.186191D+00  0.545800D-01 -0.483219D-02  0.809574D-01
      9 -0.612778D-01  0.708698D-01 -0.417483D-01 -0.149662D-01  0.240292D-01
     10 -0.494103D+00 -0.159238D+00  0.387121D-01  0.787149D-01  0.135431D-01
     11 -0.161001D+00 -0.130179D+00  0.982515D-02 -0.652630D-02  0.483431D-01
     12  0.698973D-01  0.230505D-01 -0.520867D-01  0.212537D-01  0.204276D-01
     13 -0.838465D-01 -0.269938D-01  0.483035D-01  0.184419D-01 -0.139753D-02
     14 -0.269309D-01 -0.883447D-01  0.722513D-01  0.959374D-02  0.359779D-01
     15  0.484536D-01  0.695519D-01 -0.280147D+00 -0.191805D-02 -0.335800D-02
     16  0.425512D-01 -0.193376D-01 -0.760694D-02  0.226372D-01 -0.229050D-01
     17  0.272193D-02  0.233458D-01 -0.661904D-02  0.206704D-01 -0.265103D-02
     18 -0.132631D-01  0.339442D-02  0.429685D-01  0.357657D-01 -0.407566D-01
     19  0.368609D-01 -0.693984D-02 -0.467778D-02  0.212392D-01 -0.133961D-01
     20 -0.163419D-01  0.421135D-01 -0.521797D-02 -0.216884D-01  0.406837D-01
     21  0.219546D-02 -0.552013D-02  0.424687D-01 -0.539192D-01 -0.238334D-01
     22  0.157150D-01  0.781504D-02 -0.556710D-02 -0.460912D-01  0.130815D-01
     23 -0.247423D-02  0.362636D-01 -0.354622D-02  0.124567D-01 -0.123226D-01
     24 -0.204878D-02 -0.927922D-02  0.409413D-01 -0.524411D-02  0.229935D-01
                6             7             8             9            10 
      6  0.278765D+00
      7 -0.300097D-02  0.279844D+00
      8 -0.971328D-02 -0.139640D+00  0.329174D+00
      9  0.412587D-01  0.570129D-01 -0.977440D-02  0.157950D+00
     10 -0.850822D-02  0.470333D-01 -0.269492D-02  0.292924D-02  0.606475D+00
     11  0.850574D-02  0.407380D-01  0.729600D-01 -0.102435D-01  0.185556D+00
     12  0.480658D-01  0.200769D-01  0.525380D-02  0.444426D-01 -0.856638D-02
     13 -0.373563D-02  0.418017D-01  0.269387D-02 -0.130710D-01  0.374244D-01
     14 -0.108471D-01 -0.186783D-01  0.215304D-01  0.558748D-03 -0.660326D-02
     15  0.399686D-01 -0.682720D-02 -0.754274D-02  0.412971D-01 -0.368641D-02
     16  0.916281D-02  0.273221D-01 -0.164749D-01 -0.817842D-02  0.310478D-01
     17  0.184233D-01 -0.157130D-01  0.141497D-02 -0.383760D-01 -0.726795D-02
     18  0.604009D-01 -0.804537D-02 -0.397480D-01  0.578312D-02 -0.574140D-03
     19  0.543216D-02  0.310343D-01 -0.825962D-02 -0.129692D-02  0.331525D-01
     20  0.167401D-02 -0.106106D-01  0.435810D-01  0.486144D-02 -0.971843D-02
     21  0.543838D-01 -0.296609D-01 -0.135421D-01  0.467143D-01 -0.256843D-01
     22 -0.451654D-02  0.203314D-01  0.228780D-01  0.388482D-01  0.176169D-01
     23  0.222537D-01 -0.238414D-01 -0.606499D-02 -0.419252D-01 -0.135771D-01
     24  0.356928D-01  0.951364D-02  0.204867D-01  0.616645D-01  0.537805D-02
               11            12            13            14            15 
     11  0.203863D+00
     12  0.967121D-02  0.177769D+00
     13 -0.164032D-01  0.475527D-02  0.921210D+00
     14  0.421460D-01 -0.390907D-02 -0.497300D-02  0.849687D+00
     15 -0.456068D-02  0.452739D-01  0.950526D-02  0.558337D-02  0.763677D+00
     16 -0.111325D-01 -0.281213D-01 -0.186382D+00  0.185671D+00 -0.460900D-01
     17  0.417768D-01 -0.126952D-01  0.181712D+00 -0.249167D+00  0.631808D-01
     18  0.293546D-02  0.460642D-01 -0.651884D-01  0.785086D-01 -0.534411D-01
     19 -0.939319D-02 -0.237519D-01 -0.374429D+00 -0.112853D+00  0.176396D-01
     20  0.397597D-01 -0.176893D-01 -0.117522D+00 -0.980349D-01  0.162974D-02
     21 -0.185223D-01 -0.640440D-02  0.468031D-01  0.146656D-01 -0.338518D-01
     22 -0.218380D-01 -0.555436D-01 -0.168582D-01 -0.252259D-01 -0.170768D-01
     23  0.386929D-01 -0.241096D-01 -0.171163D-01 -0.156433D+00 -0.124484D+00
     24  0.238893D-02  0.542375D-01 -0.273721D-01 -0.156811D+00 -0.165415D+00
               16            17            18            19            20 
     16  0.296406D+00
     17 -0.173145D+00  0.389526D+00
     18  0.633868D-01 -0.201096D-01  0.168433D+00
     19  0.466015D-01 -0.919092D-03  0.355635D-02  0.485799D+00
     20  0.407404D-01  0.699770D-01 -0.954405D-02  0.136786D+00  0.173296D+00
     21  0.205236D-01  0.665825D-02  0.448031D-01  0.112023D-01  0.181772D-01
     22  0.771792D-01 -0.805998D-02 -0.156379D-01  0.771038D-01 -0.164478D-02
     23  0.165832D-01  0.831394D-01  0.253198D-01  0.149751D-01  0.459862D-01
     24 -0.307667D-02 -0.104624D-01  0.423501D-01 -0.810382D-02  0.610893D-02
               21            22            23            24 
     21  0.165783D+00
     22  0.285399D-01  0.212365D+00
     23  0.219169D-01  0.129941D-01  0.328101D+00
     24  0.434652D-01  0.309538D-01  0.124575D+00  0.244426D+00
 Leave Link  716 at Thu Feb  1 10:57:12 2024, MaxMem=   131072000 cpu:               0.0 elap:               0.0
 (Enter /trinity/shared/software/gaussian/g16_A03/g16/l103.exe)

 GradGradGradGradGradGradGradGradGradGradGradGradGradGradGradGradGradGrad
 Berny optimization.
 Search for a local minimum.
 Step number   1 out of a maximum of    2
 All quantities printed in internal units (Hartrees-Bohrs-Radians)
 Second derivative matrix not updated -- first step.
 ITU=  0
     Eigenvalues ---    0.01482   0.04762   0.05236   0.06425   0.09278
     Eigenvalues ---    0.10023   0.15821   0.16620   0.17743   0.18588
     Eigenvalues ---    0.24387   0.37469   0.64248   0.94432   1.06201
     Eigenvalues ---    1.14147   1.17482   1.42029
 Quadratic step=1.234D+02 exceeds max=3.000D-01 adjusted using Lamda=-4.241D+01.
 Angle between NR and scaled steps=  48.31 degrees.
 Angle between quadratic step and forces=  42.62 degrees.
 Linear search not attempted -- first point.
 Variable       Old X    -DE/DX   Delta X   Delta X   Delta X     New X
                                 (Linear)    (Quad)   (Total)
    X1       90.51788   0.49071   0.00000   0.00640   0.00640  90.52428
    Y1      161.79835   0.08739   0.00000  -0.02225  -0.02225 161.77610
    Z1       58.80828   0.81552   0.00000  -0.04023  -0.04023  58.76805
    X2       90.13994  -0.27146   0.00000  -0.00072  -0.00072  90.13922
    Y2      160.38106  -1.33695   0.00000  -0.01409  -0.01409 160.36697
    Z2       57.57996  -1.79421   0.00000  -0.09760  -0.09760  57.48235
    X3       89.19507  -1.22078   0.00000  -0.02967  -0.02967  89.16540
    Y3      163.21565   0.19697   0.00000   0.00289   0.00289 163.21854
    Z3       58.39254  -2.35061   0.00000  -0.05340  -0.05340  58.33914
    X4       92.16194   0.30812   0.00000   0.00534   0.00534  92.16728
    Y4      162.42196   0.25557   0.00000   0.00084   0.00084 162.42280
    Z4       58.69489   0.29856   0.00000   0.00585   0.00585  58.70074
    X5       89.89427   2.04021   0.00000   0.01515   0.01515  89.90942
    Y5      160.91018  10.34403   0.00000   0.08071   0.08071 160.99089
    Z5       61.35941   9.83878   0.00000   0.11925   0.11925  61.47866
    X6       91.08480  -0.08366   0.00000  -0.01602  -0.01602  91.06878
    Y6      159.49288  -1.42050   0.00000  -0.10551  -0.10551 159.38738
    Z6       61.73735  -0.90911   0.00000  -0.09173  -0.09173  61.64562
    X7       88.11793  -0.08907   0.00000  -0.01434  -0.01434  88.10359
    Y7      160.26767  -0.46160   0.00000  -0.07913  -0.07913 160.18854
    Z7       61.41610  -0.55751   0.00000  -0.08076  -0.08076  61.33534
    X8       90.15024   0.96217   0.00000   0.00136   0.00136  90.15160
    Y8      162.41904   6.41711   0.00000   0.05616   0.05616 162.47520
    Z8       62.70661   6.05186   0.00000   0.13197   0.13197  62.83858
         Item               Value     Threshold  Converged?
 Maximum Force            ********     0.000450     NO 
 RMS     Force            3.555359     0.000300     NO 
 Maximum Displacement     0.131973     0.001800     NO 
 RMS     Displacement     0.061242     0.001200     NO 
 Predicted change in Energy=-3.831347D+00
 GradGradGradGradGradGradGradGradGradGradGradGradGradGradGradGradGradGrad

 Leave Link  103 at Thu Feb  1 10:57:12 2024, MaxMem=   131072000 cpu:               0.0 elap:               0.1
 (Enter /trinity/shared/software/gaussian/g16_A03/g16/l9999.exe)

 Test job not archived.
 1\1\GINC-C100\Force\RBP86\STO-3G\C1H6N1(1+)\JANSEA92\01-Feb-2024\0\\#P
  BP86/STO-3G nosymm gfinput gfprint force charge guess=huckel punch=de
 rivatives iop(3/33=1,6/7=3) prop(field,read) pop=esp\\QM part of step 
 0\\1,1\N,47.9,85.62,31.12\H,47.7,84.87,30.47\H,47.2,86.37,30.9\H,48.77
 ,85.95,31.06\C,47.57,85.15,32.47\H,48.2,84.4,32.67\H,46.63,84.81,32.5\
 H,47.705453,85.948457,33.182908\\Version=ES64L-G16RevA.03\HF=451.74033
 68\RMSD=1.512e-09\RMSF=3.555e+00\Dipole=0.5713256,1.8018939,12.1114355
 \Quadrupole=-5066.9066221,13314.7475285,-8247.8409064,14815.4696981,65
 36.2630456,11752.8714572\PG=C01 [X(C1H6N1)]\\@


 MANHOOD BEGINS BY TRYING TO SHAVE FACE,
 AND ENDS BY TRYING TO SAVE FACE.
 Job cpu time:       0 days  0 hours  0 minutes  5.6 seconds.
 Elapsed time:       0 days  0 hours  0 minutes  6.4 seconds.
 File lengths (MBytes):  RWF=     17 Int=      0 D2E=      0 Chk=      2 Scr=      2
 Normal termination of Gaussian 16 at Thu Feb  1 10:57:12 2024.
