 Entering Gaussian System, Link 0=g16
 Input=testopt.35.gjf
 Output=testopt.35.log
 Initial command:
 /trinity/shared/software/gaussian/g16_A03/g16/l1.exe "/home/jansea92/qmmm_revision/example/opt/Gau-52586.inp" -scrdir="/home/jansea92/qmmm_revision/example/opt/"
 Entering Link 1 = /trinity/shared/software/gaussian/g16_A03/g16/l1.exe PID=     52587.
  
 Copyright (c) 1988,1990,1992,1993,1995,1998,2003,2009,2016,
            Gaussian, Inc.  All Rights Reserved.
  
 This is part of the Gaussian(R) 16 program.  It is based on
 the Gaussian(R) 09 system (copyright 2009, Gaussian, Inc.),
 the Gaussian(R) 03 system (copyright 2003, Gaussian, Inc.),
 the Gaussian(R) 98 system (copyright 1998, Gaussian, Inc.),
 the Gaussian(R) 94 system (copyright 1995, Gaussian, Inc.),
 the Gaussian 92(TM) system (copyright 1992, Gaussian, Inc.),
 the Gaussian 90(TM) system (copyright 1990, Gaussian, Inc.),
 the Gaussian 88(TM) system (copyright 1988, Gaussian, Inc.),
 the Gaussian 86(TM) system (copyright 1986, Carnegie Mellon
 University), and the Gaussian 82(TM) system (copyright 1983,
 Carnegie Mellon University). Gaussian is a federally registered
 trademark of Gaussian, Inc.
  
 This software contains proprietary and confidential information,
 including trade secrets, belonging to Gaussian, Inc.
  
 This software is provided under written license and may be
 used, copied, transmitted, or stored only in accord with that
 written license.
  
 The following legend is applicable only to US Government
 contracts under FAR:
  
                    RESTRICTED RIGHTS LEGEND
  
 Use, reproduction and disclosure by the US Government is
 subject to restrictions as set forth in subparagraphs (a)
 and (c) of the Commercial Computer Software - Restricted
 Rights clause in FAR 52.227-19.
  
 Gaussian, Inc.
 340 Quinnipiac St., Bldg. 40, Wallingford CT 06492
  
  
 ---------------------------------------------------------------
 Warning -- This program may not be used in any manner that
 competes with the business of Gaussian, Inc. or will provide
 assistance to any competitor of Gaussian, Inc.  The licensee
 of this program is prohibited from giving any competitor of
 Gaussian, Inc. access to this program.  By using this program,
 the user acknowledges that Gaussian, Inc. is engaged in the
 business of creating and licensing software in the field of
 computational chemistry and represents and warrants to the
 licensee that it is not a competitor of Gaussian, Inc. and that
 it will not use this program in any manner prohibited above.
 ---------------------------------------------------------------
  

 Cite this work as:
 Gaussian 16, Revision A.03,
 M. J. Frisch, G. W. Trucks, H. B. Schlegel, G. E. Scuseria, 
 M. A. Robb, J. R. Cheeseman, G. Scalmani, V. Barone, 
 G. A. Petersson, H. Nakatsuji, X. Li, M. Caricato, A. V. Marenich, 
 J. Bloino, B. G. Janesko, R. Gomperts, B. Mennucci, H. P. Hratchian, 
 J. V. Ortiz, A. F. Izmaylov, J. L. Sonnenberg, D. Williams-Young, 
 F. Ding, F. Lipparini, F. Egidi, J. Goings, B. Peng, A. Petrone, 
 T. Henderson, D. Ranasinghe, V. G. Zakrzewski, J. Gao, N. Rega, 
 G. Zheng, W. Liang, M. Hada, M. Ehara, K. Toyota, R. Fukuda, 
 J. Hasegawa, M. Ishida, T. Nakajima, Y. Honda, O. Kitao, H. Nakai, 
 T. Vreven, K. Throssell, J. A. Montgomery, Jr., J. E. Peralta, 
 F. Ogliaro, M. J. Bearpark, J. J. Heyd, E. N. Brothers, K. N. Kudin, 
 V. N. Staroverov, T. A. Keith, R. Kobayashi, J. Normand, 
 K. Raghavachari, A. P. Rendell, J. C. Burant, S. S. Iyengar, 
 J. Tomasi, M. Cossi, J. M. Millam, M. Klene, C. Adamo, R. Cammi, 
 J. W. Ochterski, R. L. Martin, K. Morokuma, O. Farkas, 
 J. B. Foresman, and D. J. Fox, Gaussian, Inc., Wallingford CT, 2016.
 
 ******************************************
 Gaussian 16:  ES64L-G16RevA.03 25-Dec-2016
                 1-Feb-2024 
 ******************************************
 %NPROCSHARED=1
 Will use up to    1 processors via shared memory.
 %MEM=1000MB
 %CHK=testopt.35.chk
 %OLDCHK=testopt.34.chk
 Copying data from "testopt.34.chk" to current chk file "testopt.35.chk"
 IOpt=  2 FromEx=T IUOpen= 4 IOptOp= 5 NList=   0 IFRang= 0 IUIn= 4 IUOut= 2.
 ----------------------------------------------------------------------
 #P BP86/STO-3G guess=read nosymm gfinput gfprint force charge guess=hu
 ckel punch=derivatives iop(3/33=1,6/7=3) prop(field,read) pop=esp
 ----------------------------------------------------------------------
 1/10=7,18=10,28=-2,30=1,38=1,125=101/1,3;
 2/12=2,15=1,17=6,18=5,29=2,40=1/2;
 3/6=3,11=2,24=110,25=1,30=1,33=1,71=1,74=404,116=-2/1,2,3;
 4/5=1,11=4/1;
 5/5=2,38=6/2;
 6/7=3,8=2,9=2,10=2,14=2,15=9,28=1/1,2;
 7/7=1,16=-2,29=1,30=1/1,2,3,16;
 1/10=7,18=10,28=-2,30=1/3;
 99/10=4,12=1/99;
 Leave Link    1 at Thu Feb  1 11:02:51 2024, MaxMem=   131072000 cpu:               0.0 elap:               0.1
 (Enter /trinity/shared/software/gaussian/g16_A03/g16/l101.exe)
 ------------------
 QM part of step 35
 ------------------
 Symbolic Z-matrix:
 Charge =  1 Multiplicity = 1
 N                     47.83699   85.64259   31.07103 
 H                     47.70058   84.90377   30.3214 
 H                     47.17819   86.47612   30.93961 
 H                     48.82885   86.03186   31.03368 
 C                     47.57502   85.03175   32.45043 
 H                     48.29532   84.22606   32.68752 
 H                     46.509    84.72693   32.52478 
 H                     47.71541   85.84672   33.11599 
 
 ITRead=  0  0  0  0  0  0  0  0
 MicOpt= -1 -1 -1 -1 -1 -1 -1 -1
 NAtoms=      8 NQM=        8 NQMF=       0 NMMI=      0 NMMIF=      0
                NMic=       0 NMicF=      0.
                    Isotopes and Nuclear Properties:
 (Nuclear quadrupole moments (NQMom) in fm**2, nuclear magnetic moments (NMagM)
  in nuclear magnetons)

  Atom         1           2           3           4           5           6           7           8
 IAtWgt=          14           1           1           1          12           1           1           1
 AtmWgt=  14.0030740   1.0078250   1.0078250   1.0078250  12.0000000   1.0078250   1.0078250   1.0078250
 NucSpn=           2           1           1           1           0           1           1           1
 AtZEff=  -0.0000000  -0.0000000  -0.0000000  -0.0000000  -0.0000000  -0.0000000  -0.0000000  -0.0000000
 NQMom=    2.0440000   0.0000000   0.0000000   0.0000000   0.0000000   0.0000000   0.0000000   0.0000000
 NMagM=    0.4037610   2.7928460   2.7928460   2.7928460   0.0000000   2.7928460   2.7928460   2.7928460
 AtZNuc=   7.0000000   1.0000000   1.0000000   1.0000000   6.0000000   1.0000000   1.0000000   1.0000000
 Background charge distribution read from input stream:
 Point Charges:
 XYZ=   46.9171   86.3050   34.2319 Q=   -0.2861 A=    0.0000 R=    0.0000 C=    0.0000
 XYZ=   48.8556   86.9623   33.2894 Q=   -0.0960 A=    0.0000 R=    0.0000 C=    0.0000
 XYZ=   49.5725   86.8453   32.6017 Q=    0.2681 A=    0.0000 R=    0.0000 C=    0.0000
 XYZ=   49.0973   88.1455   34.1510 Q=   -0.2722 A=    0.0000 R=    0.0000 C=    0.0000
 XYZ=   49.2306   87.8159   35.1845 Q=    0.1304 A=    0.0000 R=    0.0000 C=    0.0000
 XYZ=   50.3911   88.8642   33.7311 Q=    0.1123 A=    0.0000 R=    0.0000 C=    0.0000
 XYZ=   50.5536   89.7238   34.3922 Q=    0.0813 A=    0.0000 R=    0.0000 C=    0.0000
 XYZ=   51.2390   88.1884   33.8330 Q=    0.0813 A=    0.0000 R=    0.0000 C=    0.0000
 XYZ=   50.3589   89.2355   32.3638 Q=   -0.6514 A=    0.0000 R=    0.0000 C=    0.0000
 XYZ=   50.9337   89.9957   32.2337 Q=    0.4474 A=    0.0000 R=    0.0000 C=    0.0000
 XYZ=   47.8928   89.1079   34.1675 Q=    0.8113 A=    0.0000 R=    0.0000 C=    0.0000
 XYZ=   47.5574   89.6035   33.0704 Q=   -0.8132 A=    0.0000 R=    0.0000 C=    0.0000
 XYZ=   47.2900   89.2600   35.2500 Q=   -0.8132 A=    0.0000 R=    0.0000 C=    0.0000
 XYZ=   46.4872   86.3704   34.6584 Q=   -0.2746 A=    0.0000 R=    0.0000 C=    0.0000
 XYZ=   47.3471   86.2396   33.8055 Q=    0.2746 A=    0.0000 R=    0.0000 C=    0.0000
 XYZ=   49.3836   87.3460   33.2432 Q=   -0.2834 A=    0.0000 R=    0.0000 C=    0.0000
 XYZ=   48.3275   86.5786   33.3355 Q=    0.2834 A=    0.0000 R=    0.0000 C=    0.0000
 Pt Chg Charge=             -1.0000 electrons
 Pt Chg Dipole moment (Debye):
    X=           -221.8428    Y=           -428.1154    Z=           -164.8878  Tot=            509.5930
 Pt Chg Quadrupole moment (Debye-Ang):
   XX=         -10226.5071   YY=         -38158.3773   ZZ=          -5668.4406
   XY=         -19776.5692   XZ=          -7614.7779   YZ=         -14691.0037
 Pt Chg Traceless Quadrupole moment (Debye-Ang):
   XX=           7791.2679   YY=         -20140.6023   ZZ=          12349.3344
   XY=         -19776.5692   XZ=          -7614.7779   YZ=         -14691.0037
 Pt Chg Octapole moment (Debye-Ang**2):
  XXX=        -470387.0826  YYY=       -3401088.7303  ZZZ=        -195140.1709  XYY=       -1762982.1467
  XXY=        -911812.8596  XXZ=        -350997.6672  XZZ=        -261755.2221  YZZ=        -504853.1444
  YYZ=       -1308943.9286  XYZ=        -678570.7937
 Pt Chg Hexadecapole moment (Debye-Ang**3):
 XXXX=      -21581694.4748 YYYY=     -303141095.6990 ZZZZ=       -6727080.0201 XXXY=      -41947200.1388
 XXXZ=      -16143971.4873 YYYX=     -157157871.1404 YYYZ=     -116626418.9151 ZZZX=       -9010539.0773
 ZZZY=      -17373726.0807 XXYY=      -81295559.0971 XXZZ=      -12064693.8153 YYZZ=      -44965597.1156
 XXYZ=      -31283423.1386 YYXZ=      -60468938.3744 ZZXY=      -23316910.6837
 Leave Link  101 at Thu Feb  1 11:02:51 2024, MaxMem=   131072000 cpu:               0.2 elap:               0.2
 (Enter /trinity/shared/software/gaussian/g16_A03/g16/l103.exe)

 GradGradGradGradGradGradGradGradGradGradGradGradGradGradGradGradGradGrad
 Berny optimization.
 Initialization pass.
 Trust Radius=3.00D-01 FncErr=1.00D-07 GrdErr=1.00D-07 EigMax=2.50D+02 EigMin=1.00D-04
 Number of steps in this run=      2 maximum allowed number of steps=      2.
 GradGradGradGradGradGradGradGradGradGradGradGradGradGradGradGradGradGrad

 Leave Link  103 at Thu Feb  1 11:02:51 2024, MaxMem=   131072000 cpu:               0.0 elap:               0.0
 (Enter /trinity/shared/software/gaussian/g16_A03/g16/l202.exe)
 ---------------------------------------------------------------------------------------------------
                            Z-MATRIX (ANGSTROMS AND DEGREES)
   CD    Cent   Atom    N1       Length/X        N2       Alpha/Y        N3        Beta/Z          J
 ---------------------------------------------------------------------------------------------------
      1      1  N        0  47.836988         85.642593         31.071029
      2      2  H        0  47.700575         84.903772         30.321400
      3      3  H        0  47.178187         86.476115         30.939614
      4      4  H        0  48.828848         86.031856         31.033679
      5      5  C        0  47.575017         85.031747         32.450432
      6      6  H        0  48.295315         84.226055         32.687522
      7      7  H        0  46.509001         84.726930         32.524776
      8      8  H        0  47.715413         85.846721         33.115988
 ---------------------------------------------------------------------------------------------------
                         Z-Matrix orientation:                         
 ---------------------------------------------------------------------
 Center     Atomic      Atomic             Coordinates (Angstroms)
 Number     Number       Type             X           Y           Z
 ---------------------------------------------------------------------
      1          7           0       47.836988   85.642593   31.071029
      2          1           0       47.700575   84.903772   30.321400
      3          1           0       47.178187   86.476115   30.939614
      4          1           0       48.828848   86.031856   31.033679
      5          6           0       47.575017   85.031747   32.450432
      6          1           0       48.295315   84.226055   32.687522
      7          1           0       46.509001   84.726930   32.524776
      8          1           0       47.715413   85.846721   33.115988
 ---------------------------------------------------------------------
                    Distance matrix (angstroms):
                    1          2          3          4          5
     1  N    0.000000
     2  H    1.061324   0.000000
     3  H    1.070536   1.768429   0.000000
     4  H    1.066165   1.747259   1.711986   0.000000
     5  C    1.531181   2.136567   2.127497   2.139976   0.000000
     6  H    2.197656   2.532104   3.060380   2.506147   1.106427
     7  H    2.171490   2.511173   2.453609   3.050884   1.111229
     8  H    2.058715   2.949423   2.328380   2.368549   1.061536
                    6          7          8
     6  H    0.000000
     7  H    1.862332   0.000000
     8  H    1.773817   1.748969   0.000000
 Symmetry turned off by external request.
 Stoichiometry    CH6N(1+)
 Framework group  C1[X(CH6N)]
 Deg. of freedom    18
 Full point group                 C1      NOp   1
 Rotational constants (GHZ):          80.1950749          19.6320606          19.5016545
 Leave Link  202 at Thu Feb  1 11:02:51 2024, MaxMem=   131072000 cpu:               0.0 elap:               0.0
 (Enter /trinity/shared/software/gaussian/g16_A03/g16/l301.exe)
 Standard basis: STO-3G (5D, 7F)
                         Coordinates in L301:                         
 ---------------------------------------------------------------------
 Center     Atomic      Atomic             Coordinates (Angstroms)
 Number     Number       Type             X           Y           Z
 ---------------------------------------------------------------------
      1          7           0       47.836988   85.642593   31.071029
      2          1           0       47.700575   84.903772   30.321400
      3          1           0       47.178187   86.476115   30.939614
      4          1           0       48.828848   86.031856   31.033679
      5          6           0       47.575017   85.031747   32.450432
      6          1           0       48.295315   84.226055   32.687522
      7          1           0       46.509001   84.726930   32.524776
      8          1           0       47.715413   85.846721   33.115988
 ---------------------------------------------------------------------
 FixB: optimizing general contractions.
 Ernie: Thresh=  0.10000D-02 Tol=  0.10000D-05 Strict=F.
 IA=     1 ShT= 0 ShC= 0 NL=   1 NS=   0.
 IA=     1 L=0 SC=0 ISt=    0 NBk=    0 NP=    0 IndPr=    0.
 IA=     1 ShT= 1 ShC= 0 NL=   1 NS=   0.
 IA=     1 L=1 SC=0 ISt=    0 NBk=    0 NP=    0 IndPr=    0.
 IA=     2 ShT= 0 ShC= 0 NL=   1 NS=   0.
 IA=     2 L=0 SC=0 ISt=    0 NBk=    0 NP=    0 IndPr=    0.
 IA=     3 ShT= 0 ShC= 0 NL=   1 NS=   0.
 IA=     3 L=0 SC=0 ISt=    0 NBk=    0 NP=    0 IndPr=    0.
 IA=     4 ShT= 0 ShC= 0 NL=   1 NS=   0.
 IA=     4 L=0 SC=0 ISt=    0 NBk=    0 NP=    0 IndPr=    0.
 IA=     5 ShT= 0 ShC= 0 NL=   1 NS=   0.
 IA=     5 L=0 SC=0 ISt=    0 NBk=    0 NP=    0 IndPr=    0.
 IA=     5 ShT= 1 ShC= 0 NL=   1 NS=   0.
 IA=     5 L=1 SC=0 ISt=    0 NBk=    0 NP=    0 IndPr=    0.
 IA=     6 ShT= 0 ShC= 0 NL=   1 NS=   0.
 IA=     6 L=0 SC=0 ISt=    0 NBk=    0 NP=    0 IndPr=    0.
 IA=     7 ShT= 0 ShC= 0 NL=   1 NS=   0.
 IA=     7 L=0 SC=0 ISt=    0 NBk=    0 NP=    0 IndPr=    0.
 IA=     8 ShT= 0 ShC= 0 NL=   1 NS=   0.
 IA=     8 L=0 SC=0 ISt=    0 NBk=    0 NP=    0 IndPr=    0.
 AO basis set in the form of general basis input (Overlap normalization):
      1 0
 S   3 1.00       0.000000000000
      0.9910616896D+02  0.1543289673D+00
      0.1805231239D+02  0.5353281423D+00
      0.4885660238D+01  0.4446345422D+00
 SP   3 1.00       0.000000000000
      0.3780455879D+01 -0.9996722919D-01  0.1559162750D+00
      0.8784966449D+00  0.3995128261D+00  0.6076837186D+00
      0.2857143744D+00  0.7001154689D+00  0.3919573931D+00
 ****
      2 0
 S   3 1.00       0.000000000000
      0.3425250914D+01  0.1543289673D+00
      0.6239137298D+00  0.5353281423D+00
      0.1688554040D+00  0.4446345422D+00
 ****
      3 0
 S   3 1.00       0.000000000000
      0.3425250914D+01  0.1543289673D+00
      0.6239137298D+00  0.5353281423D+00
      0.1688554040D+00  0.4446345422D+00
 ****
      4 0
 S   3 1.00       0.000000000000
      0.3425250914D+01  0.1543289673D+00
      0.6239137298D+00  0.5353281423D+00
      0.1688554040D+00  0.4446345422D+00
 ****
      5 0
 S   3 1.00       0.000000000000
      0.7161683735D+02  0.1543289673D+00
      0.1304509632D+02  0.5353281423D+00
      0.3530512160D+01  0.4446345422D+00
 SP   3 1.00       0.000000000000
      0.2941249355D+01 -0.9996722919D-01  0.1559162750D+00
      0.6834830964D+00  0.3995128261D+00  0.6076837186D+00
      0.2222899159D+00  0.7001154689D+00  0.3919573931D+00
 ****
      6 0
 S   3 1.00       0.000000000000
      0.3425250914D+01  0.1543289673D+00
      0.6239137298D+00  0.5353281423D+00
      0.1688554040D+00  0.4446345422D+00
 ****
      7 0
 S   3 1.00       0.000000000000
      0.3425250914D+01  0.1543289673D+00
      0.6239137298D+00  0.5353281423D+00
      0.1688554040D+00  0.4446345422D+00
 ****
      8 0
 S   3 1.00       0.000000000000
      0.3425250914D+01  0.1543289673D+00
      0.6239137298D+00  0.5353281423D+00
      0.1688554040D+00  0.4446345422D+00
 ****

 AO basis set (Overlap normalization):
 Atom N1       Shell     1 S   3     bf    1 -     1         90.398805944105        161.841045367593         58.715735218419
      0.9910616896D+02  0.1543289673D+00
      0.1805231239D+02  0.5353281423D+00
      0.4885660238D+01  0.4446345422D+00
 Atom N1       Shell     2 SP   3    bf    2 -     5         90.398805944105        161.841045367593         58.715735218419
      0.3780455879D+01 -0.9996722919D-01  0.1559162750D+00
      0.8784966449D+00  0.3995128261D+00  0.6076837186D+00
      0.2857143744D+00  0.7001154689D+00  0.3919573931D+00
 Atom H2       Shell     3 S   3     bf    6 -     6         90.141022734275        160.444876022516         57.299141713387
      0.3425250914D+01  0.1543289673D+00
      0.6239137298D+00  0.5353281423D+00
      0.1688554040D+00  0.4446345422D+00
 Atom H3       Shell     4 S   3     bf    7 -     7         89.153852483516        163.416173666393         58.467396859759
      0.3425250914D+01  0.1543289673D+00
      0.6239137298D+00  0.5353281423D+00
      0.1688554040D+00  0.4446345422D+00
 Atom H4       Shell     5 S   3     bf    8 -     8         92.273149698016        162.576645828020         58.645153947666
      0.3425250914D+01  0.1543289673D+00
      0.6239137298D+00  0.5353281423D+00
      0.1688554040D+00  0.4446345422D+00
 Atom C5       Shell     6 S   3     bf    9 -     9         89.903752501527        160.686713723307         61.322429103822
      0.7161683735D+02  0.1543289673D+00
      0.1304509632D+02  0.5353281423D+00
      0.3530512160D+01  0.4446345422D+00
 Atom C5       Shell     7 SP   3    bf   10 -    13         89.903752501527        160.686713723307         61.322429103822
      0.2941249355D+01 -0.9996722919D-01  0.1559162750D+00
      0.6834830964D+00  0.3995128261D+00  0.6076837186D+00
      0.2222899159D+00  0.7001154689D+00  0.3919573931D+00
 Atom H6       Shell     8 S   3     bf   14 -    14         91.264918449599        159.164176502554         61.770464270695
      0.3425250914D+01  0.1543289673D+00
      0.6239137298D+00  0.5353281423D+00
      0.1688554040D+00  0.4446345422D+00
 Atom H7       Shell     9 S   3     bf   15 -    15         87.889274217123        160.110693075195         61.462918902827
      0.3425250914D+01  0.1543289673D+00
      0.6239137298D+00  0.5353281423D+00
      0.1688554040D+00  0.4446345422D+00
 Atom H8       Shell    10 S   3     bf   16 -    16         90.169062490511        162.226791381948         62.580147664383
      0.3425250914D+01  0.1543289673D+00
      0.6239137298D+00  0.5353281423D+00
      0.1688554040D+00  0.4446345422D+00
 LdAtmC:  AtmChg=     7.000000     1.000000     1.000000     1.000000     6.000000
 LdAtmC:  AtmChg=     1.000000     1.000000     1.000000
 AtZEff=     -4.5500000     -1.0000000     -1.0000000     -1.0000000     -3.6000000
 AtZEff=     -1.0000000     -1.0000000     -1.0000000
    16 basis functions,    48 primitive gaussians,    16 cartesian basis functions
     9 alpha electrons        9 beta electrons
       nuclear repulsion energy        46.9299735647 Hartrees.
 IS=     1 IAt=     1 ISR=     1 T=0 IP=      1 IndIP=      1 IndIPD=      0 C=  3.454881D+00  0.000000D+00                             NZ=T
 IS=     1 IAt=     1 ISR=     1 T=0 IP=      2 IndIP=      2 IndIPD=      1 C=  3.341410D+00  0.000000D+00                             NZ=T
 IS=     1 IAt=     1 ISR=     1 T=0 IP=      3 IndIP=      3 IndIPD=      2 C=  1.041372D+00  0.000000D+00                             NZ=T
 IS=     2 IAt=     1 ISR=     2 T=1 IP=      1 IndIP=      4 IndIPD=      0 C= -1.931639D-01  1.171553D+00                             NZ=T
 IS=     2 IAt=     1 ISR=     2 T=1 IP=      2 IndIP=      5 IndIPD=      1 C=  2.583723D-01  7.367037D-01                             NZ=T
 IS=     2 IAt=     1 ISR=     2 T=1 IP=      3 IndIP=      6 IndIPD=      2 C=  1.949974D-01  1.167062D-01                             NZ=T
 IS=     3 IAt=     2 ISR=     1 T=0 IP=      1 IndIP=      7 IndIPD=      0 C=  2.769344D-01  0.000000D+00                             NZ=T
 IS=     3 IAt=     2 ISR=     1 T=0 IP=      2 IndIP=      8 IndIPD=      1 C=  2.678389D-01  0.000000D+00                             NZ=T
 IS=     3 IAt=     2 ISR=     1 T=0 IP=      3 IndIP=      9 IndIPD=      2 C=  8.347367D-02  0.000000D+00                             NZ=T
 IS=     4 IAt=     3 ISR=     1 T=0 IP=      1 IndIP=     10 IndIPD=      0 C=  2.769344D-01  0.000000D+00                             NZ=T
 IS=     4 IAt=     3 ISR=     1 T=0 IP=      2 IndIP=     11 IndIPD=      1 C=  2.678389D-01  0.000000D+00                             NZ=T
 IS=     4 IAt=     3 ISR=     1 T=0 IP=      3 IndIP=     12 IndIPD=      2 C=  8.347367D-02  0.000000D+00                             NZ=T
 IS=     5 IAt=     4 ISR=     1 T=0 IP=      1 IndIP=     13 IndIPD=      0 C=  2.769344D-01  0.000000D+00                             NZ=T
 IS=     5 IAt=     4 ISR=     1 T=0 IP=      2 IndIP=     14 IndIPD=      1 C=  2.678389D-01  0.000000D+00                             NZ=T
 IS=     5 IAt=     4 ISR=     1 T=0 IP=      3 IndIP=     15 IndIPD=      2 C=  8.347367D-02  0.000000D+00                             NZ=T
 IS=     6 IAt=     5 ISR=     1 T=0 IP=      1 IndIP=     16 IndIPD=      0 C=  2.707814D+00  0.000000D+00                             NZ=T
 IS=     6 IAt=     5 ISR=     1 T=0 IP=      2 IndIP=     17 IndIPD=      1 C=  2.618880D+00  0.000000D+00                             NZ=T
 IS=     6 IAt=     5 ISR=     1 T=0 IP=      3 IndIP=     18 IndIPD=      2 C=  8.161906D-01  0.000000D+00                             NZ=T
 IS=     7 IAt=     5 ISR=     2 T=1 IP=      1 IndIP=     19 IndIPD=      0 C= -1.600172D-01  8.560445D-01                             NZ=T
 IS=     7 IAt=     5 ISR=     2 T=1 IP=      2 IndIP=     20 IndIPD=      1 C=  2.140359D-01  5.383038D-01                             NZ=T
 IS=     7 IAt=     5 ISR=     2 T=1 IP=      3 IndIP=     21 IndIPD=      2 C=  1.615361D-01  8.527636D-02                             NZ=T
 IS=     8 IAt=     6 ISR=     1 T=0 IP=      1 IndIP=     22 IndIPD=      0 C=  2.769344D-01  0.000000D+00                             NZ=T
 IS=     8 IAt=     6 ISR=     1 T=0 IP=      2 IndIP=     23 IndIPD=      1 C=  2.678389D-01  0.000000D+00                             NZ=T
 IS=     8 IAt=     6 ISR=     1 T=0 IP=      3 IndIP=     24 IndIPD=      2 C=  8.347367D-02  0.000000D+00                             NZ=T
 IS=     9 IAt=     7 ISR=     1 T=0 IP=      1 IndIP=     25 IndIPD=      0 C=  2.769344D-01  0.000000D+00                             NZ=T
 IS=     9 IAt=     7 ISR=     1 T=0 IP=      2 IndIP=     26 IndIPD=      1 C=  2.678389D-01  0.000000D+00                             NZ=T
 IS=     9 IAt=     7 ISR=     1 T=0 IP=      3 IndIP=     27 IndIPD=      2 C=  8.347367D-02  0.000000D+00                             NZ=T
 IS=    10 IAt=     8 ISR=     1 T=0 IP=      1 IndIP=     28 IndIPD=      0 C=  2.769344D-01  0.000000D+00                             NZ=T
 IS=    10 IAt=     8 ISR=     1 T=0 IP=      2 IndIP=     29 IndIPD=      1 C=  2.678389D-01  0.000000D+00                             NZ=T
 IS=    10 IAt=     8 ISR=     1 T=0 IP=      3 IndIP=     30 IndIPD=      2 C=  8.347367D-02  0.000000D+00                             NZ=T
 IExCor=  404 DFT=T Ex=B Corr=P86 ExCW=0 ScaHFX=  0.000000
 ScaDFX=  1.000000  1.000000  1.000000  1.000000 ScalE2=  1.000000  1.000000
 IRadAn=      5 IRanWt=     -1 IRanGd=            0 ICorTp=0 IEmpDi=  4
 NAtoms=    8 NActive=    8 NUniq=    8 SFac= 1.00D+00 NAtFMM=   60 NAOKFM=F Big=F
 Integral buffers will be    131072 words long.
 Raffenetti 2 integral format.
 Two-electron integral symmetry is turned off.
 Background charge distribution read from rwf.
 PtFMM for NChg=        25 BoxLen=    40.00 Levels= 0 LMax=20 SMax=    10.9 ICnFMM=     1:
 Self energy of the charges =        -0.6581937969 a.u.
 MM   energy of the charges =         0.0000000000 a.u.
 Nuclei-charges interaction =        -1.5868942485 a.u.
 Nuclear repulsion after external point charges =       44.6848855193 Hartrees.
 Leave Link  301 at Thu Feb  1 11:02:52 2024, MaxMem=   131072000 cpu:               0.1 elap:               0.1
 (Enter /trinity/shared/software/gaussian/g16_A03/g16/l302.exe)
 NPDir=0 NMtPBC=     1 NCelOv=     1 NCel=       1 NClECP=     1 NCelD=      1
         NCelK=      1 NCelE2=     1 NClLst=     1 CellRange=     0.0.
 One-electron integrals computed using PRISM.
 Entering OneElI...
 Calculate overlap and kinetic energy integrals
    NBasis =  16  MinDer = 0  MaxDer = 0
 Requested accuracy = 0.1000D-12
 PrmmSu-InSpLW:  IPartL=    0 NPrtUS=    1 NPrtUL=    1 DoSpLW=F IThBeg=    0 IThEnd=    0 NThAct=    1.
 PrsmSu:  NPrtUS=   1 ThrOK=F IAlg=1 NPAlg=1 LenDen=           0 ISkipM=0 DoSpLW=F IThBeg=    0 IThEnd=    0.
 Prism:   IPart=     0 DynPar=F LinDyn=F Incr=           1.
 PRISM was handed   131062249 working-precision words and    55 shell-pairs
 IPart=  0 NShTot=          55 NBatch=           5 AvBLen=        11.0
 PrSmSu:  NxtVal=              2.
 *** Overlap *** 
                1             2             3             4             5 
      1  0.100000D+01
      2  0.235038D+00  0.100000D+01
      3  0.000000D+00  0.000000D+00  0.100000D+01
      4  0.000000D+00  0.000000D+00  0.000000D+00  0.100000D+01
      5  0.000000D+00  0.000000D+00  0.000000D+00  0.000000D+00  0.100000D+01
      6  0.519829D-01  0.464629D+00 -0.542696D-01 -0.293928D+00 -0.298227D+00
      7  0.508622D-01  0.459080D+00 -0.257764D+00  0.326126D+00 -0.514178D-01
      8  0.513909D-01  0.461709D+00  0.391160D+00  0.153514D+00 -0.147297D-01
      9  0.000000D+00  0.194987D-01 -0.582600D-02 -0.135847D-01  0.306767D-01
     10  0.211270D-01  0.259604D+00 -0.480375D-01 -0.112011D+00  0.252940D+00
     11  0.606371D-02  0.552024D-01  0.124588D+00 -0.295428D-01  0.667130D-01
     12  0.141389D-01  0.128717D+00 -0.295428D-01  0.683722D-01  0.155557D+00
     13 -0.319283D-01 -0.290667D+00  0.667130D-01  0.155557D+00 -0.214018D+00
     14  0.376599D-02  0.686957D-01  0.178373D-01 -0.551293D-01  0.629112D-01
     15  0.402968D-02  0.723900D-01 -0.547911D-01 -0.377791D-01  0.599798D-01
     16  0.535080D-02  0.903454D-01 -0.643366D-02  0.108023D-01  0.108218D+00
                6             7             8             9            10 
      6  0.100000D+01
      7  0.172310D+00  0.100000D+01
      8  0.178008D+00  0.187847D+00  0.100000D+01
      9  0.569152D-02  0.582274D-02  0.564285D-02  0.100000D+01
     10  0.100750D+00  0.102419D+00  0.100128D+00  0.248362D+00  0.100000D+01
     11  0.760357D-02 -0.244810D-01  0.754020D-01  0.000000D+00  0.000000D+00
     12 -0.774994D-02  0.891050D-01  0.601439D-01  0.000000D+00  0.000000D+00
     13 -0.128930D+00 -0.932044D-01 -0.851997D-01  0.000000D+00  0.000000D+00
     14  0.466125D-01  0.160630D-01  0.489503D-01  0.599326D-01  0.481343D+00
     15  0.484899D-01  0.539934D-01  0.163923D-01  0.592647D-01  0.478607D+00
     16  0.203093D-01  0.678462D-01  0.631054D-01  0.665552D-01  0.507247D+00
               11            12            13            14            15 
     11  0.100000D+01
     12  0.000000D+00  0.100000D+01
     13  0.000000D+00  0.000000D+00  0.100000D+01
     14  0.300492D+00 -0.336117D+00  0.989087D-01  0.100000D+01
     15 -0.441178D+00 -0.126151D+00  0.307678D-01  0.148816D+00  0.100000D+01
     16  0.630676D-01  0.366096D+00  0.298976D+00  0.170884D+00  0.177542D+00
               16 
     16  0.100000D+01
 *** Kinetic Energy *** 
                1             2             3             4             5 
      1  0.219908D+02
      2 -0.128416D+00  0.606994D+00
      3  0.000000D+00  0.000000D+00  0.189936D+01
      4  0.000000D+00  0.000000D+00  0.000000D+00  0.189936D+01
      5  0.000000D+00  0.000000D+00  0.000000D+00  0.000000D+00  0.189936D+01
      6 -0.847486D-02  0.103890D+00 -0.321678D-01 -0.174223D+00 -0.176771D+00
      7 -0.879163D-02  0.100547D+00 -0.150295D+00  0.190155D+00 -0.299802D-01
      8 -0.864543D-02  0.102125D+00  0.229864D+00  0.902120D-01 -0.865589D-02
      9  0.000000D+00 -0.106345D-01  0.195446D-02  0.455728D-02 -0.102912D-01
     10 -0.637532D-02  0.107282D-01 -0.139222D-01 -0.324627D-01  0.733069D-01
     11 -0.153466D-02  0.156006D-01  0.258929D-01 -0.162026D-01  0.365884D-01
     12 -0.357842D-02  0.363763D-01 -0.162026D-01 -0.493838D-02  0.853144D-01
     13  0.808074D-02 -0.821445D-01  0.365884D-01  0.853144D-01 -0.159814D+00
     14 -0.175236D-02 -0.160927D-01 -0.140612D-02  0.434585D-02 -0.495930D-02
     15 -0.180053D-02 -0.162969D-01  0.379698D-02  0.261807D-02 -0.415656D-02
     16 -0.201065D-02 -0.167763D-01  0.178875D-03 -0.300337D-03 -0.300878D-02
                6             7             8             9            10 
      6  0.760032D+00
      7 -0.519833D-02  0.760032D+00
      8 -0.447621D-02 -0.313902D-02  0.760032D+00
      9 -0.237608D-02 -0.239838D-02 -0.236773D-02  0.158911D+02
     10 -0.148506D-01 -0.147989D-01 -0.148684D-01 -0.858900D-01  0.472250D+00
     11  0.142946D-04 -0.119674D-03  0.565265D-04  0.000000D+00  0.000000D+00
     12 -0.145698D-04  0.435587D-03  0.450880D-04  0.000000D+00  0.000000D+00
     13 -0.242387D-03 -0.455626D-03 -0.638716D-04  0.000000D+00  0.000000D+00
     14 -0.104630D-01 -0.612947D-02 -0.106256D-01 -0.110472D-01  0.101580D+00
     15 -0.105949D-01 -0.109205D-01 -0.620805D-02 -0.111796D-01  0.100067D+00
     16 -0.706870D-02 -0.113916D-01 -0.112811D-01 -0.934984D-02  0.116395D+00
               11            12            13            14            15 
     11  0.147773D+01
     12  0.000000D+00  0.147773D+01
     13  0.000000D+00  0.000000D+00  0.147773D+01
     14  0.163508D+00 -0.182893D+00  0.538196D-01  0.760032D+00
     15 -0.238169D+00 -0.681021D-01  0.166099D-01 -0.777653D-02  0.760032D+00
     16  0.368967D-01  0.214179D+00  0.174911D+00 -0.537310D-02 -0.453670D-02
               16 
     16  0.760032D+00
 Entering OneElI...
 Calculate potential energy integrals
    NBasis =  16  MinDer = 0  MaxDer = 0
 Requested accuracy = 0.1000D-12
 PrmmSu-InSpLW:  IPartL=    0 NPrtUS=    1 NPrtUL=    1 DoSpLW=F IThBeg=    0 IThEnd=    0 NThAct=    1.
 PrsmSu:  NPrtUS=   1 ThrOK=F IAlg=1 NPAlg=1 LenDen=           0 ISkipM=0 DoSpLW=F IThBeg=    0 IThEnd=    0.
 Prism:   IPart=     0 DynPar=F LinDyn=F Incr=          13.
 PRISM was handed   131061422 working-precision words and    55 shell-pairs
 IPart=  0 NShTot=        1375 NBatch=          55 AvBLen=        25.0
 PrSmSu:  NxtVal=             14.
 ***** Potential Energy ***** 
                1             2             3             4             5 
      1  0.504015D+02
      2  0.642375D+01  0.110536D+02
      3 -0.563692D-02 -0.741811D-01  0.109296D+02
      4 -0.140186D-01 -0.183292D+00  0.166948D-01  0.109641D+02
      5  0.336794D-01  0.439232D+00 -0.328047D-01 -0.672585D-01  0.110969D+02
      6  0.144945D+01  0.427876D+01 -0.484852D+00 -0.255310D+01 -0.237712D+01
      7  0.141790D+01  0.422331D+01 -0.220293D+01  0.269380D+01 -0.284070D+00
      8  0.143285D+01  0.425385D+01  0.328712D+01  0.123842D+01  0.250597D-01
      9  0.000000D+00  0.420785D+00 -0.126702D+00 -0.295405D+00  0.667271D+00
     10  0.588738D+00  0.263062D+01 -0.486007D+00 -0.113312D+01  0.257054D+01
     11  0.169199D+00  0.576786D+00  0.108203D+01 -0.293773D+00  0.666473D+00
     12  0.394515D+00  0.134610D+01 -0.294079D+00  0.522346D+00  0.155654D+01
     13 -0.890852D+00 -0.302557D+01  0.661910D+00  0.154428D+01 -0.228744D+01
     14  0.104398D+00  0.633470D+00  0.123139D+00 -0.473048D+00  0.586931D+00
     15  0.111764D+00  0.665847D+00 -0.447682D+00 -0.337498D+00  0.565868D+00
     16  0.148724D+00  0.837680D+00 -0.717721D-01  0.375775D-01  0.974090D+00
                6             7             8             9            10 
      6  0.723773D+01
      7  0.137084D+01  0.720821D+01
      8  0.141354D+01  0.147954D+01  0.723858D+01
      9  0.123197D+00  0.126098D+00  0.122170D+00  0.381869D+02
     10  0.893196D+00  0.907798D+00  0.890115D+00  0.531835D+01  0.967559D+01
     11  0.884947D-01 -0.153978D+00  0.602778D+00  0.106947D-01  0.124859D+00
     12  0.138683D-01  0.747468D+00  0.528758D+00  0.263822D-01  0.302238D+00
     13 -0.113482D+01 -0.864446D+00 -0.803682D+00 -0.486342D-01 -0.578631D+00
     14  0.348455D+00  0.143420D+00  0.364265D+00  0.130000D+01  0.395827D+01
     15  0.362331D+00  0.398642D+00  0.146471D+00  0.128547D+01  0.393602D+01
     16  0.182424D+00  0.505757D+00  0.475078D+00  0.144782D+01  0.428168D+01
               11            12            13            14            15 
     11  0.953206D+01
     12  0.215485D-01  0.958250D+01
     13 -0.476852D-01 -0.118163D+00  0.978135D+01
     14  0.234697D+01 -0.249177D+01  0.584135D+00  0.682250D+01
     15 -0.334834D+01 -0.877178D+00  0.567815D-01  0.111145D+01  0.681274D+01
     16  0.543782D+00  0.299567D+01  0.215594D+01  0.129223D+01  0.133510D+01
               16 
     16  0.714636D+01
 ****** Core Hamiltonian ****** 
                1             2             3             4             5 
      1 -0.284107D+02
      2 -0.655216D+01 -0.104466D+02
      3  0.563692D-02  0.741811D-01 -0.903024D+01
      4  0.140186D-01  0.183292D+00 -0.166948D-01 -0.906470D+01
      5 -0.336794D-01 -0.439232D+00  0.328047D-01  0.672585D-01 -0.919758D+01
      6 -0.145792D+01 -0.417486D+01  0.452684D+00  0.237887D+01  0.220035D+01
      7 -0.142669D+01 -0.412276D+01  0.205263D+01 -0.250364D+01  0.254090D+00
      8 -0.144150D+01 -0.415172D+01 -0.305725D+01 -0.114821D+01 -0.337156D-01
      9  0.000000D+00 -0.431419D+00  0.128656D+00  0.299962D+00 -0.677562D+00
     10 -0.595114D+00 -0.261989D+01  0.472085D+00  0.110066D+01 -0.249723D+01
     11 -0.170734D+00 -0.561186D+00 -0.105614D+01  0.277570D+00 -0.629885D+00
     12 -0.398094D+00 -0.130972D+01  0.277877D+00 -0.527284D+00 -0.147122D+01
     13  0.898933D+00  0.294343D+01 -0.625321D+00 -0.145897D+01  0.212763D+01
     14 -0.106150D+00 -0.649563D+00 -0.124545D+00  0.477394D+00 -0.591890D+00
     15 -0.113564D+00 -0.682144D+00  0.451479D+00  0.340116D+00 -0.570024D+00
     16 -0.150734D+00 -0.854456D+00  0.719510D-01 -0.378779D-01 -0.977099D+00
                6             7             8             9            10 
      6 -0.647770D+01
      7 -0.137604D+01 -0.644818D+01
      8 -0.141802D+01 -0.148268D+01 -0.647855D+01
      9 -0.125573D+00 -0.128496D+00 -0.124538D+00 -0.222958D+02
     10 -0.908047D+00 -0.922597D+00 -0.904983D+00 -0.540424D+01 -0.920334D+01
     11 -0.884804D-01  0.153859D+00 -0.602721D+00 -0.106947D-01 -0.124859D+00
     12 -0.138828D-01 -0.747033D+00 -0.528713D+00 -0.263822D-01 -0.302238D+00
     13  0.113457D+01  0.863990D+00  0.803618D+00  0.486342D-01  0.578631D+00
     14 -0.358918D+00 -0.149550D+00 -0.374891D+00 -0.131104D+01 -0.385669D+01
     15 -0.372926D+00 -0.409562D+00 -0.152679D+00 -0.129664D+01 -0.383595D+01
     16 -0.189493D+00 -0.517149D+00 -0.486359D+00 -0.145717D+01 -0.416528D+01
               11            12            13            14            15 
     11 -0.805433D+01
     12 -0.215485D-01 -0.810477D+01
     13  0.476852D-01  0.118163D+00 -0.830362D+01
     14 -0.218346D+01  0.230888D+01 -0.530315D+00 -0.606247D+01
     15  0.311017D+01  0.809075D+00 -0.401716D-01 -0.111923D+01 -0.605271D+01
     16 -0.506885D+00 -0.278149D+01 -0.198103D+01 -0.129760D+01 -0.133963D+01
               16 
     16 -0.638633D+01
 SVDSVc IOpt=   1 NormSV=T IR=1
 SVDSVc V= 2.42D+00 1.95D+00 1.60D+00 1.59D+00 1.36D+00 1.28D+00 1.27D+00 9.87D-01 9.67D-01 4.81D-01
 SVDSVc V= 4.25D-01 4.14D-01 3.68D-01 3.61D-01 2.99D-01 2.28D-01
 TstOVc:  Largest diagonal error= 1.78D-15 IB=1 I=    8.
 TstOVc:  Largest same sym error= 8.74D-16 IB=1 I=   14 J=   11.
 Orthogonalized basis functions: 
                 1             2             3             4             5 
      1   0.776046D-01  0.100139D+00 -0.444968D-02 -0.500987D-02  0.352719D-01
      2   0.298260D+00  0.273292D+00 -0.966486D-02 -0.105665D-01  0.484385D-01
      3  -0.844138D-02  0.318310D-01 -0.203212D+00  0.319420D+00 -0.104118D+00
      4  -0.122807D-01  0.572566D-01  0.318711D+00  0.197485D+00 -0.315570D+00
      5   0.551298D-01 -0.147048D+00  0.111515D+00  0.146281D+00  0.494018D+00
      6   0.179897D+00  0.213200D+00 -0.192618D+00 -0.198662D+00 -0.606213D-01
      7   0.189980D+00  0.200229D+00  0.237686D+00 -0.496818D-01 -0.154170D+00
      8   0.188242D+00  0.209247D+00 -0.595310D-01  0.239727D+00 -0.143755D+00
      9   0.860628D-01 -0.107692D+00 -0.140995D-01 -0.799534D-02  0.572842D-01
     10   0.310969D+00 -0.265643D+00 -0.302626D-01 -0.185850D-01  0.718269D-01
     11   0.121550D-01  0.385442D-01 -0.265391D+00  0.396343D+00  0.111224D+00
     12   0.483741D-01  0.666673D-01  0.381690D+00  0.204293D+00  0.243774D+00
     13  -0.545294D-01 -0.207367D+00  0.867227D-01  0.156686D+00 -0.470461D+00
     14   0.171039D+00 -0.214302D+00 -0.317767D+00  0.844648D-01 -0.119506D+00
     15   0.176181D+00 -0.214121D+00  0.848186D-01 -0.307747D+00 -0.119804D+00
     16   0.202508D+00 -0.220905D+00  0.195068D+00  0.201136D+00 -0.317795D-01
                 6             7             8             9            10 
      1  -0.924705D-02  0.665564D-02  0.868878D+00  0.436095D+00 -0.652103D-01
      2  -0.105631D-01  0.736435D-02  0.469454D-01 -0.114509D-01  0.157484D+00
      3   0.399905D+00  0.333404D+00 -0.102116D-01  0.236144D-01 -0.135465D+00
      4  -0.309897D+00  0.256026D+00 -0.296984D-01  0.614994D-01 -0.371641D+00
      5  -0.129490D+00  0.276244D+00  0.678123D-01 -0.128632D+00  0.825361D+00
      6   0.187342D+00 -0.314030D+00 -0.115105D+00 -0.539598D-01  0.252024D+00
      7  -0.362605D+00 -0.285060D-01 -0.115277D+00 -0.526417D-01  0.245529D+00
      8   0.194341D+00  0.303882D+00 -0.112476D+00 -0.511610D-01  0.215530D+00
      9  -0.109430D-01  0.165682D-01 -0.424291D+00  0.878511D+00  0.881146D-01
     10  -0.142779D-01  0.210580D-01 -0.289947D-01 -0.756095D-02 -0.189261D+00
     11  -0.272800D+00 -0.256110D+00 -0.237793D-01 -0.119320D-01 -0.175342D+00
     12   0.261540D+00 -0.254051D+00 -0.440159D-01 -0.127146D-01 -0.306715D+00
     13   0.110527D+00 -0.231635D+00  0.129441D+00  0.547117D-01  0.869304D+00
     14  -0.307172D+00 -0.105062D-01  0.651955D-01 -0.123771D+00 -0.171946D+00
     15   0.156467D+00  0.274024D+00  0.636899D-01 -0.118738D+00 -0.198039D+00
     16   0.178876D+00 -0.291159D+00  0.533141D-01 -0.101064D+00 -0.225836D+00
                11            12            13            14            15 
      1   0.629305D-02 -0.296280D-02 -0.284230D-02 -0.750465D-02 -0.313355D+00
      2  -0.186192D-01  0.654933D-02  0.806642D-02  0.236219D-01  0.134323D+01
      3   0.897523D+00  0.161786D+00 -0.334392D+00  0.111543D+00  0.564874D-01
      4  -0.209355D+00  0.850333D+00 -0.971110D-01 -0.296433D+00  0.965926D-01
      5   0.572015D-01  0.405064D+00 -0.777287D-01 -0.112044D+00 -0.217760D+00
      6   0.319694D-01  0.932876D+00 -0.130392D+00 -0.206209D+00 -0.585049D+00
      7   0.803529D+00 -0.504812D+00 -0.105898D+00  0.192798D+00 -0.549035D+00
      8  -0.823172D+00 -0.451369D+00  0.253670D+00 -0.902382D-02 -0.575136D+00
      9   0.120676D-02  0.964578D-02  0.262428D-01  0.470138D-01 -0.755086D-01
     10  -0.347794D-02 -0.257642D-01 -0.804270D-01 -0.152938D+00  0.346473D+00
     11   0.243180D+00  0.600528D-01  0.983561D+00 -0.332374D+00 -0.477759D-01
     12  -0.488356D-01  0.220815D+00  0.238620D+00  0.969033D+00 -0.890774D-01
     13   0.962232D-02  0.676207D-01  0.266763D+00  0.232801D+00  0.346661D+00
     14  -0.224224D+00  0.148952D+00 -0.432653D+00  0.923413D+00 -0.211621D+00
     15   0.252175D+00  0.161162D+00  0.996027D+00  0.589990D-01 -0.194224D+00
     16  -0.840319D-02 -0.264728D+00 -0.463051D+00 -0.769256D+00 -0.256118D+00
                16 
      1   0.122676D+00
      2  -0.594018D+00
      3   0.338791D-01
      4   0.672169D-01
      5  -0.201315D+00
      6   0.147620D+00
      7   0.166489D+00
      8   0.161237D+00
      9  -0.322134D+00
     10   0.155904D+01
     11   0.210988D-02
     12   0.150521D+00
     13   0.183153D+00
     14  -0.563781D+00
     15  -0.574274D+00
     16  -0.817164D+00
 NBasis=    16 RedAO= T EigKep=  2.28D-01  NBF=    16
 NBsUse=    16 1.00D-06 EigRej= -1.00D+00 NBFU=    16
 Precomputing XC quadrature grid using
 IXCGrd= 4 IRadAn=           5 IRanWt=          -1 IRanGd=           0 AccXCQ= 0.00D+00.
 SetAtRh:  ITypeU=  23 NETotI=       0 ICharg=  1 NETot=       0.
 StAtR1:  I=    1 I1=    1 IA=  7 C=   7.0 OKShel=TTT
                                                  SSP
                                                  223
 StAtR1:  I=    2 I1=    2 IA=  1 C=   1.0 OKShel=T
                                                  S
                                                  1
 StAtR1:  I=    3 I1=    3 IA=  1 C=   1.0 OKShel=T
                                                  S
                                                  1
 StAtR1:  I=    4 I1=    4 IA=  1 C=   1.0 OKShel=T
                                                  S
                                                  1
 StAtR1:  I=    5 I1=    5 IA=  6 C=   6.0 OKShel=TTT
                                                  SSP
                                                  222
 StAtR1:  I=    6 I1=    6 IA=  1 C=   1.0 OKShel=T
                                                  S
                                                  1
 StAtR1:  I=    7 I1=    7 IA=  1 C=   1.0 OKShel=T
                                                  S
                                                  1
 StAtR1:  I=    8 I1=    8 IA=  1 C=   1.0 OKShel=T
                                                  S
                                                  1
          I=    1 IA=  7 I1=    1 NAtG= 0 NE=   7.000 C=   0.000 Err=-7.00D+00
          I=    2 IA=  1 I1=    2 NAtG= 0 NE=   1.000 C=   0.000 Err=-1.00D+00
          I=    3 IA=  1 I1=    3 NAtG= 0 NE=   1.000 C=   0.000 Err=-1.00D+00
          I=    4 IA=  1 I1=    4 NAtG= 0 NE=   1.000 C=   0.000 Err=-1.00D+00
          I=    5 IA=  6 I1=    5 NAtG= 0 NE=   6.000 C=   0.000 Err=-6.00D+00
          I=    6 IA=  1 I1=    6 NAtG= 0 NE=   1.000 C=   0.000 Err=-1.00D+00
          I=    7 IA=  1 I1=    7 NAtG= 0 NE=   1.000 C=   0.000 Err=-1.00D+00
          I=    8 IA=  1 I1=    8 NAtG= 0 NE=   1.000 C=   0.000 Err=-1.00D+00
 Generated NRdTot=       0 NPtTot=           0 NUsed=           0 NTot=          32
 NSgBfM=    16    16    16    16    16 MxSgAt=     8 MxSgA2=     8.
 IGWInf( 1) =          32 (NGWInf)
 IGWInf( 2) =           8 (NAtomA)
 IGWInf( 3) =           5 (IRadAn)
 IGWInf( 4) =          -1 (IRanWt)
 IGWInf( 5) =           0 (IRanGd)
 IGWInf( 6) =           2 (IRType)
 IGWInf( 7) =           0 (NRdTot)
 IGWInf( 8) =           0 (NGWTot)
 IGWInf( 9) =      173132 (LGWBtD)
 IGWInf(10) =           0 (NAtBtD)
 IGWInf(11) =           0 (NIRBtD)
 IGWInf(12) =           0 (NRRBtD)
 IGWInf(13) =           1 (NClRep)
 IGWInf(14) =           0 (ICntr3)
 IGWInf(15) =           0 (IPFlag)
 IGWInf(16) =           0 (IGet)  
 IGWInf(17) =           0         
 IGWInf(18) =          16         
 IGWInf(19) =          16         
 IGWInf(20) =          16         
 IGWInf(21) =          16         
 IGWInf(22) =          16         
 IGWInf(23) =           8         
 IGWInf(24) =           8         
 IGWInf(25) =           0         
 IGWInf(26) =           0         
 IGWInf(27) =           0         
 IGWInf(28) =           0         
 IGWInf(29) =           0         
 IGWInf(30) =           0         
 IGWInf(31) =           0         
 IGWInf(32) =           0         
 IAtBtD: 
              1            2            3            4            5
              6            7            8
 Leave Link  302 at Thu Feb  1 11:02:52 2024, MaxMem=   131072000 cpu:               0.2 elap:               0.2
 (Enter /trinity/shared/software/gaussian/g16_A03/g16/l303.exe)
 DipDrv:  MaxL=1.
 DipPsm:  J= 1 NJ= 4 MaxL=1 MMat= 4 MaxMat= 4.
 DipInt: DoE/N= T F RetVal/Mat= F T Init=T NMatP=  4 IDeriv=0 Min/MaxMlt=  0  1
 Entering OneElI...
 Multipole integrals L=0 to 1 MinM= 0 MaxM= 3.
 Requested accuracy = 0.1000D-12
 PrmmSu-InSpLW:  IPartL=    0 NPrtUS=    1 NPrtUL=    1 DoSpLW=F IThBeg=    0 IThEnd=    0 NThAct=    1.
 PrsmSu:  NPrtUS=   1 ThrOK=F IAlg=1 NPAlg=1 LenDen=           0 ISkipM=0 DoSpLW=F IThBeg=    0 IThEnd=    0.
 Prism:   IPart=     0 DynPar=F LinDyn=F Incr=           1.
 PRISM was handed   131062689 working-precision words and    55 shell-pairs
 IPart=  0 NShTot=          55 NBatch=           6 AvBLen=         9.2
 PrSmSu:  NxtVal=              2.
 Multipole matrices IBuc=  518 IX=    1 IJ=           1:
                1             2             3             4             5 
      1  0.903988D+02
      2  0.212471D+02  0.903988D+02
      3  0.579343D-01  0.739815D+00  0.903988D+02
      4  0.000000D+00  0.000000D+00  0.000000D+00  0.903988D+02
      5  0.000000D+00  0.000000D+00  0.000000D+00  0.000000D+00  0.903988D+02
      6  0.469855D+01  0.419449D+02 -0.458090D+01 -0.265347D+02 -0.269229D+02
      7  0.459487D+01  0.412284D+02 -0.228347D+02  0.292886D+02 -0.461771D+01
      8  0.465029D+01  0.421498D+02  0.360250D+02  0.140141D+02 -0.134466D+01
      9  0.000000D+00  0.175359D+01 -0.522702D+00 -0.122176D+01  0.275896D+01
     10  0.190948D+01  0.234111D+02 -0.415127D+01 -0.101028D+02  0.228140D+02
     11  0.548974D+00  0.514224D+01  0.112410D+02 -0.273576D+01  0.617785D+01
     12  0.127784D+01  0.116045D+02 -0.257732D+01  0.616573D+01  0.140265D+02
     13 -0.288560D+01 -0.262052D+02  0.582006D+01  0.140265D+02 -0.192972D+02
     14  0.340525D+00  0.623388D+01  0.166786D+01 -0.500281D+01  0.570900D+01
     15  0.364018D+00  0.647082D+01 -0.484575D+01 -0.337689D+01  0.536130D+01
     16  0.483674D+00  0.815861D+01 -0.516744D+00  0.975491D+00  0.977249D+01
                6             7             8             9            10 
      6  0.901410D+02
      7  0.154471D+02  0.891539D+02
      8  0.162356D+02  0.170402D+02  0.922731D+02
      9  0.511737D+00  0.523331D+00  0.507787D+00  0.899038D+02
     10  0.906911D+01  0.917137D+01  0.911444D+01  0.223287D+02  0.899038D+02
     11  0.756927D+00 -0.211865D+01  0.693461D+01  0.718555D-01  0.838744D+00
     12 -0.697610D+00  0.797955D+01  0.547387D+01  0.000000D+00  0.000000D+00
     13 -0.116057D+02 -0.834666D+01 -0.775428D+01  0.000000D+00  0.000000D+00
     14  0.422789D+01  0.144904D+01  0.449212D+01  0.539330D+01  0.436177D+02
     15  0.431634D+01  0.477958D+01  0.147664D+01  0.532064D+01  0.425238D+02
     16  0.183098D+01  0.608319D+01  0.575654D+01  0.598471D+01  0.456742D+02
               11            12            13            14            15 
     11  0.899038D+02
     12  0.000000D+00  0.899038D+02
     13  0.000000D+00  0.000000D+00  0.899038D+02
     14  0.275707D+02 -0.304517D+02  0.896099D+01  0.912649D+02
     15 -0.388655D+02 -0.112117D+02  0.273451D+01  0.133305D+02  0.878893D+02
     16  0.604456D+01  0.329631D+02  0.269196D+02  0.155020D+02  0.158064D+02
               16 
     16  0.901691D+02
 Multipole matrices IBuc=  518 IX=    2 IJ=           1:
                1             2             3             4             5 
      1  0.161841D+03
      2  0.380388D+02  0.161841D+03
      3  0.000000D+00  0.000000D+00  0.161841D+03
      4  0.579343D-01  0.739815D+00  0.000000D+00  0.161841D+03
      5  0.000000D+00  0.000000D+00  0.000000D+00  0.000000D+00  0.161841D+03
      6  0.840948D+01  0.748872D+02 -0.874705D+01 -0.470562D+02 -0.480676D+02
      7  0.823541D+01  0.746420D+02 -0.419096D+02  0.533390D+02 -0.835997D+01
      8  0.831897D+01  0.748851D+02  0.634424D+02  0.252148D+02 -0.238902D+01
      9  0.110477D-05  0.313454D+01 -0.936608D+00 -0.218265D+01  0.493169D+01
     10  0.341834D+01  0.418822D+02 -0.775164D+01 -0.178933D+02  0.408161D+02
     11  0.981056D+00  0.890267D+01  0.200983D+02 -0.472832D+01  0.107612D+02
     12  0.228851D+01  0.209241D+02 -0.479627D+01  0.110450D+02  0.252547D+02
     13 -0.516573D+01 -0.468769D+02  0.107612D+02  0.248969D+02 -0.345209D+02
     14  0.609232D+00  0.110440D+02  0.286762D+01 -0.881369D+01  0.101139D+02
     15  0.651989D+00  0.116652D+02 -0.882915D+01 -0.603605D+01  0.966527D+01
     16  0.866033D+00  0.146359D+02 -0.104225D+01  0.181422D+01  0.175313D+02
                6             7             8             9            10 
      6  0.160445D+03
      7  0.279022D+02  0.163416D+03
      8  0.287502D+02  0.306184D+02  0.162577D+03
      9  0.914504D+00  0.936200D+00  0.907109D+00  0.160687D+03
     10  0.161776D+02  0.165902D+02  0.161790D+02  0.399085D+02  0.160687D+03
     11  0.122093D+01 -0.396509D+01  0.121828D+02  0.000000D+00  0.000000D+00
     12 -0.117194D+01  0.145057D+02  0.978958D+01  0.718555D-01  0.838744D+00
     13 -0.207028D+02 -0.150960D+02 -0.137658D+02  0.000000D+00  0.000000D+00
     14  0.744889D+01  0.259081D+01  0.787465D+01  0.962463D+01  0.769616D+02
     15  0.777186D+01  0.873416D+01  0.264480D+01  0.952091D+01  0.767614D+02
     16  0.327661D+01  0.110468D+02  0.102484D+02  0.107012D+02  0.819185D+02
               11            12            13            14            15 
     11  0.160687D+03
     12  0.000000D+00  0.160687D+03
     13  0.000000D+00  0.000000D+00  0.160687D+03
     14  0.480516D+02 -0.534018D+02  0.158164D+02  0.159164D+03
     15 -0.707617D+02 -0.198892D+02  0.493493D+01  0.237565D+02  0.160111D+03
     16  0.101838D+02  0.594813D+02  0.482771D+02  0.274602D+02  0.286142D+02
               16 
     16  0.162227D+03
 Multipole matrices IBuc=  518 IX=    3 IJ=           1:
                1             2             3             4             5 
      1  0.587157D+02
      2  0.138004D+02  0.587157D+02
      3  0.000000D+00  0.000000D+00  0.587157D+02
      4  0.000000D+00  0.000000D+00  0.000000D+00  0.587157D+02
      5  0.579343D-01  0.739815D+00  0.000000D+00  0.000000D+00  0.587157D+02
      6  0.304868D+01  0.269676D+02 -0.314995D+01 -0.170603D+02 -0.169915D+02
      7  0.298581D+01  0.269010D+02 -0.151044D+02  0.191103D+02 -0.269846D+01
      8  0.301728D+01  0.270941D+02  0.229541D+02  0.900852D+01 -0.548037D+00
      9  0.000000D+00  0.119266D+01 -0.356254D+00 -0.830689D+00  0.187712D+01
     10  0.124245D+01  0.155420D+02 -0.287203D+01 -0.669679D+01  0.153041D+02
     11  0.356715D+00  0.331203D+01  0.746235D+01 -0.177031D+01  0.403480D+01
     12  0.831763D+00  0.772276D+01 -0.177031D+01  0.409369D+01  0.940807D+01
     13 -0.187732D+01 -0.172740D+02  0.396685D+01  0.924962D+01 -0.128612D+02
     14  0.221418D+00  0.411769D+01  0.106923D+01 -0.330464D+01  0.382029D+01
     15  0.236891D+00  0.433051D+01 -0.327790D+01 -0.226015D+01  0.364007D+01
     16  0.314712D+00  0.544776D+01 -0.388017D+00  0.651492D+00  0.659090D+01
                6             7             8             9            10 
      6  0.572991D+02
      7  0.997385D+01  0.584674D+02
      8  0.103195D+02  0.109996D+02  0.586452D+02
      9  0.348207D+00  0.356475D+00  0.345498D+00  0.613224D+02
     10  0.598583D+01  0.614168D+01  0.601290D+01  0.152302D+02  0.613224D+02
     11  0.451943D+00 -0.146847D+01  0.452932D+01  0.000000D+00  0.000000D+00
     12 -0.460643D+00  0.534488D+01  0.361278D+01  0.000000D+00  0.000000D+00
     13 -0.759090D+01 -0.551710D+01 -0.504581D+01  0.718555D-01  0.838744D+00
     14  0.277507D+01  0.965692D+00  0.294719D+01  0.367690D+01  0.296301D+02
     15  0.287938D+01  0.323772D+01  0.984427D+00  0.363478D+01  0.293845D+02
     16  0.121733D+01  0.410631D+01  0.382498D+01  0.408680D+01  0.314410D+02
               11            12            13            14            15 
     11  0.613224D+02
     12  0.000000D+00  0.613224D+02
     13  0.000000D+00  0.000000D+00  0.613224D+02
     14  0.184956D+02 -0.206884D+02  0.643446D+01  0.617705D+02
     15 -0.270857D+02 -0.774490D+01  0.223343D+01  0.916952D+01  0.614629D+02
     16  0.390806D+01  0.226856D+02  0.188924D+02  0.106247D+02  0.110114D+02
               16 
     16  0.625801D+02
 Fermi contact integrals: 
                 1             2             3             4             5 
      1   0.783766D+01  0.000000D+00  0.000000D+00  0.000000D+00  0.000000D+00
      2   0.260206D+00  0.693311D-01  0.676547D-01  0.684455D-01  0.179949D-01
      3   0.000000D+00 -0.150775D-01 -0.703027D-01  0.107622D+00 -0.551593D-02
      4   0.000000D+00 -0.816605D-01  0.889477D-01  0.422372D-01 -0.128617D-01
      5   0.000000D+00 -0.828551D-01 -0.140237D-01 -0.405268D-02  0.290440D-01
      6   0.640964D-01  0.628247D+00  0.129162D-01  0.135430D-01  0.533260D-02
      7   0.626659D-01  0.129162D-01  0.628247D+00  0.146473D-01  0.545910D-02
      8   0.633404D-01  0.135430D-01  0.146473D-01  0.628247D+00  0.528568D-02
      9   0.000000D+00  0.000000D+00  0.000000D+00  0.000000D+00  0.614289D+01
     10   0.258193D-01  0.431355D-02  0.444825D-02  0.426384D-02  0.215555D+00
     11   0.743660D-02  0.541765D-03 -0.176605D-02  0.534742D-02  0.000000D+00
     12   0.173401D-01 -0.552194D-03  0.642800D-02  0.426533D-02  0.000000D+00
     13  -0.391573D-01 -0.918648D-02 -0.672372D-02 -0.604226D-02  0.000000D+00
     14   0.454264D-02  0.174806D-02  0.294328D-03  0.189153D-02  0.574110D-01
     15   0.486809D-02  0.186298D-02  0.221349D-02  0.304810D-03  0.567450D-01
     16   0.650213D-02  0.440007D-03  0.317710D-02  0.283510D-02  0.640631D-01
                 6             7             8 
      1   0.000000D+00  0.000000D+00  0.000000D+00
      2   0.141238D-02  0.158714D-02  0.258259D-02
      3   0.732268D-03 -0.238437D-02 -0.355335D-03
      4  -0.226320D-02 -0.164405D-02  0.596618D-03
      5   0.258267D-02  0.261017D-02  0.597693D-02
      6   0.174806D-02  0.186298D-02  0.440007D-03
      7   0.294328D-03  0.221349D-02  0.317710D-02
      8   0.189153D-02  0.304810D-03  0.283510D-02
      9   0.000000D+00  0.000000D+00  0.000000D+00
     10   0.719125D-01  0.711212D-01  0.797133D-01
     11   0.808503D-01 -0.117706D+00  0.183772D-01
     12  -0.904354D-01 -0.336568D-01  0.106676D+00
     13   0.266123D-01  0.820880D-02  0.871181D-01
     14   0.628247D+00  0.104287D-01  0.127608D-01
     15   0.104287D-01  0.628247D+00  0.134914D-01
     16   0.127608D-01  0.134914D-01  0.628247D+00
 Leave Link  303 at Thu Feb  1 11:02:52 2024, MaxMem=   131072000 cpu:               0.0 elap:               0.1
 (Enter /trinity/shared/software/gaussian/g16_A03/g16/l401.exe)
 Initial guess from the checkpoint file:  "testopt.35.chk"
 B after Tr=    -0.000036    0.000028   -0.000022
         Rot=    1.000000   -0.000000   -0.000000    0.000000 Ang=  -0.00 deg.
 Guess basis will be translated and rotated to current coordinates.
 JPrj=2 DoOrth=T DoCkMO=T.
 Leave Link  401 at Thu Feb  1 11:02:52 2024, MaxMem=   131072000 cpu:               0.1 elap:               0.1
 (Enter /trinity/shared/software/gaussian/g16_A03/g16/l502.exe)
 Keep J ints in memory in canonical form, NReq=871357.
 FoFCou: FMM=F IPFlag=           0 FMFlag=           0 FMFlg1=           0
         NFxFlg=           0 DoJE=F BraDBF=F KetDBF=F FulRan=T
         wScrn=  0.000000 ICntrl=       600 IOpCl=  0 I1Cent=           0 NGrid=           0
         NMat0=    1 NMatS0=    136 NMatT0=    0 NMatD0=    1 NMtDS0=    0 NMtDT0=    0
 Symmetry not used in FoFCou.
 Two-electron integral symmetry not used.
 Closed shell SCF:
 Using DIIS extrapolation, IDIIS=  1040.
 NGot=   131072000 LenX=   131061156 LenY=   131060274
 Requested convergence on RMS density matrix=1.00D-08 within 128 cycles.
 Requested convergence on MAX density matrix=1.00D-06.
 Requested convergence on             energy=1.00D-06.
 No special actions if energy rises.

 Cycle   1  Pass 1  IDiag  1:
 E= -95.7898827103526    
 DIIS: error= 2.87D-08 at cycle   1 NSaved=   1.
 NSaved= 1 IEnMin= 1 EnMin= -95.7898827103526     IErMin= 1 ErrMin= 2.87D-08
 ErrMax= 2.87D-08  0.00D+00 EMaxC= 1.00D-01 BMatC= 2.29D-14 BMatP= 2.29D-14
 IDIUse=1 WtCom= 1.00D+00 WtEn= 0.00D+00
 Coeff-Com:  0.100D+01
 Coeff:      0.100D+01
 Gap=     0.494 Goal=   None    Shift=    0.000
 RMSDP=2.02D-08 MaxDP=7.81D-08              OVMax= 0.00D+00

 Cycle   2  Pass 1  IDiag  1:
 E= -95.7898827103526     Delta-E=        0.000000000000 Rises=F Damp=F
 DIIS: error= 1.37D-08 at cycle   2 NSaved=   2.
 NSaved= 2 IEnMin= 1 EnMin= -95.7898827103526     IErMin= 2 ErrMin= 1.37D-08
 ErrMax= 1.37D-08  0.00D+00 EMaxC= 1.00D-01 BMatC= 3.34D-15 BMatP= 2.29D-14
 IDIUse=1 WtCom= 1.00D+00 WtEn= 0.00D+00
 Coeff-Com:  0.197D+00 0.803D+00
 Coeff:      0.197D+00 0.803D+00
 Gap=     0.494 Goal=   None    Shift=    0.000
 RMSDP=7.73D-09 MaxDP=3.98D-08 DE= 2.84D-14 OVMax= 0.00D+00

 SCF Done:  E(RB-P86) =  -95.7898827104     A.U. after    2 cycles
            NFock=  2  Conv=0.77D-08     -V/T= 2.0348
 KE= 9.256939365740D+01 PE=-3.055830563757D+02 EE= 7.253889448860D+01
 Leave Link  502 at Thu Feb  1 11:02:53 2024, MaxMem=   131072000 cpu:               0.8 elap:               0.9
 (Enter /trinity/shared/software/gaussian/g16_A03/g16/l601.exe)
 Copying SCF densities to generalized density rwf, IOpCl= 0 IROHF=0.

 **********************************************************************

            Population analysis using the SCF density.

 **********************************************************************

 Alpha  occ. eigenvalues --  -14.20375  -9.97129  -1.05471  -0.78274  -0.67224
 Alpha  occ. eigenvalues --   -0.65789  -0.56706  -0.50403  -0.48837
 Alpha virt. eigenvalues --    0.00519   0.04194   0.06176   0.07769   0.21083
 Alpha virt. eigenvalues --    0.22967   0.25417
     Molecular Orbital Coefficients:
                           1         2         3         4         5
                           O         O         O         O         O
     Eigenvalues --   -14.20375  -9.97129  -1.05471  -0.78274  -0.67224
   1 1   N  1S          0.99210   0.00084  -0.22653   0.05435  -0.00074
   2        2S          0.03812  -0.00626   0.78070  -0.21934   0.00357
   3        2PX         0.00018   0.00090   0.00964  -0.05640   0.20402
   4        2PY         0.00021   0.00216   0.00050  -0.10297   0.55961
   5        2PZ        -0.00025  -0.00486  -0.00099   0.29439   0.25016
   6 2   H  1S         -0.00745  -0.00035   0.10686  -0.10538  -0.36493
   7 3   H  1S         -0.00730  -0.00027   0.09486  -0.07660   0.15362
   8 4   H  1S         -0.00740  -0.00029   0.10605  -0.08930   0.23512
   9 5   C  1S          0.00057   0.99022  -0.06872  -0.20905   0.01414
  10        2S         -0.00559   0.04594   0.16277   0.61972  -0.04895
  11        2PX        -0.00084   0.00021   0.01654   0.02420   0.04855
  12        2PY        -0.00202   0.00127   0.03450   0.04307   0.13925
  13        2PZ         0.00432   0.00060  -0.06410  -0.00021   0.07579
  14 6   H  1S          0.00039  -0.00928   0.01919   0.14425  -0.04135
  15 7   H  1S          0.00042  -0.00921   0.01762   0.12781  -0.05063
  16 8   H  1S          0.00056  -0.01025   0.02676   0.19659   0.08653
                           6         7         8         9        10
                           O         O         O         O         V
     Eigenvalues --    -0.65789  -0.56706  -0.50403  -0.48837   0.00519
   1 1   N  1S          0.00583  -0.03123   0.00008  -0.00412  -0.18918
   2        2S         -0.02547   0.14782  -0.00271   0.01965   1.19832
   3        2PX         0.61582  -0.06668   0.01303  -0.20111   0.01849
   4        2PY        -0.22874  -0.23023  -0.19129   0.00322  -0.13953
   5        2PZ         0.00553   0.56903  -0.06564  -0.00629   0.22628
   6 2   H  1S          0.03977  -0.13684   0.16923   0.03706  -0.49417
   7 3   H  1S         -0.33459  -0.10623  -0.12638   0.12081  -0.40917
   8 4   H  1S          0.30606  -0.08207  -0.05189  -0.17598  -0.51585
   9 5   C  1S         -0.00419   0.04764   0.02136   0.01253   0.06763
  10        2S          0.01419  -0.13769  -0.08930  -0.04592  -0.33686
  11        2PX         0.16369   0.04830  -0.00936   0.59313  -0.13096
  12        2PY        -0.06805   0.13411   0.54294  -0.00764  -0.20501
  13        2PZ         0.01588  -0.42409   0.17254   0.07154   0.72786
  14 6   H  1S          0.08305  -0.16619  -0.32668   0.30195   0.02861
  15 7   H  1S         -0.05844  -0.12547  -0.13483  -0.43257   0.01543
  16 8   H  1S         -0.00672  -0.20574   0.44937   0.09443  -0.07125
                          11        12        13        14        15
                           V         V         V         V         V
     Eigenvalues --     0.04194   0.06176   0.07769   0.21083   0.22967
   1 1   N  1S          0.05994  -0.01086  -0.01579   0.00269  -0.00837
   2        2S         -0.42522   0.06813   0.10647  -0.01988   0.05363
   3        2PX        -0.18390  -0.90102  -0.10025  -0.05342   0.25964
   4        2PY        -0.20661  -0.08497   0.90898  -0.23332  -0.04686
   5        2PZ         0.85259  -0.18978   0.20740  -0.16080   0.02857
   6 2   H  1S          0.66294  -0.37258   0.77226  -0.20284  -0.01447
   7 3   H  1S          0.34436  -0.63735  -0.84376   0.08786   0.10557
   8 4   H  1S          0.46339   0.92394  -0.26223   0.08633  -0.18425
   9 5   C  1S          0.08825   0.00404  -0.01612   0.06782   0.08441
  10        2S         -0.47778  -0.02392   0.09469  -0.40274  -0.53719
  11        2PX        -0.12205  -0.16541  -0.00374   0.29637  -0.93471
  12        2PY        -0.14980  -0.01877   0.21782   0.95976   0.21792
  13        2PZ         0.58113  -0.00046  -0.03818   0.15616  -0.31727
  14 6   H  1S          0.11864   0.14310   0.16888   0.65916   1.02020
  15 7   H  1S          0.05399  -0.21762   0.03788   0.74752  -0.53832
  16 8   H  1S         -0.03804   0.07936  -0.23780  -0.66624   0.39048
                          16
                           V
     Eigenvalues --     0.25417
   1 1   N  1S          0.02845
   2        2S         -0.18336
   3        2PX         0.10074
   4        2PY        -0.08973
   5        2PZ        -0.10311
   6 2   H  1S          0.00221
   7 3   H  1S          0.17398
   8 4   H  1S          0.04471
   9 5   C  1S         -0.19634
  10        2S          1.24332
  11        2PX        -0.38820
  12        2PY         0.37370
  13        2PZ         0.45340
  14 6   H  1S         -0.14690
  15 7   H  1S         -0.81145
  16 8   H  1S         -0.99696
          Condensed to atoms (all electrons):
               1          2          3          4          5          6
     1  N    6.121359   0.324410   0.320540   0.322183   0.280458  -0.015917
     2  H    0.324410   0.412144  -0.018430  -0.020259  -0.020157  -0.001502
     3  H    0.320540  -0.018430   0.384634  -0.020780  -0.018857   0.001672
     4  H    0.322183  -0.020259  -0.020780   0.417254  -0.019332  -0.001733
     5  C    0.280458  -0.020157  -0.018857  -0.019332   4.746442   0.381361
     6  H   -0.015917  -0.001502   0.001672  -0.001733   0.381361   0.510761
     7  H   -0.016188  -0.001659  -0.001969   0.001773   0.379609  -0.014767
     8  H   -0.024045   0.002356  -0.002782  -0.002459   0.385641  -0.020253
               7          8
     1  N   -0.016188  -0.024045
     2  H   -0.001659   0.002356
     3  H   -0.001969  -0.002782
     4  H    0.001773  -0.002459
     5  C    0.379609   0.385641
     6  H   -0.014767  -0.020253
     7  H    0.487505  -0.019146
     8  H   -0.019146   0.600364
 Mulliken charges:
               1
     1  N   -0.312800
     2  H    0.323097
     3  H    0.355973
     4  H    0.323352
     5  C   -0.115166
     6  H    0.160377
     7  H    0.184842
     8  H    0.080324
 Sum of Mulliken charges =   1.00000
 Mulliken charges with hydrogens summed into heavy atoms:
               1
     1  N    0.689623
     5  C    0.310377
 Electronic spatial extent (au):  <R**2>=         679502.7386
 Charge=              1.0000 electrons
 Dipole moment (field-independent basis, Debye):
    X=            229.3672    Y=            411.0027    Z=            149.9468  Tot=            493.9804
 Quadrupole moment (field-independent basis, Debye-Ang):
   XX=          10943.1567   YY=          35159.1873   ZZ=           4671.3494
   XY=          19626.6984   XZ=           7159.9301   YZ=          12829.7369
 Traceless Quadrupole moment (field-independent basis, Debye-Ang):
   XX=          -5981.4078   YY=          18234.6228   ZZ=         -12253.2151
   XY=          19626.6984   XZ=           7159.9301   YZ=          12829.7369
 Octapole moment (field-independent basis, Debye-Ang**2):
  XXX=         521633.6512  YYY=        3006870.3402  ZZZ=         145203.6708  XYY=        1678973.0814
  XXY=         936401.8644  XXZ=         341572.4213  XZZ=         223041.1781  YZZ=         399659.5716
  YYZ=        1097428.0837  XYZ=         612620.8348
 Hexadecapole moment (field-independent basis, Debye-Ang**3):
 XXXX=       24842758.8252 YYYY=      257083016.2559 ZZZZ=        4502547.8502 XXXY=       44636547.9756
 XXXZ=       16280209.4012 YYYX=      143589290.1309 YYYZ=       93845480.6622 ZZZX=        6932521.3851
 ZZZY=       12422049.9909 XXYY=       80105530.8260 XXZZ=       10639472.0686 YYZZ=       34183186.6003
 XXYZ=       29226022.8219 YYXZ=       52402570.2441 ZZXY=       19082507.1078
 N-N= 4.468488551931D+01 E-N=-3.055830563938D+02  KE= 9.256939365740D+01
 Orbital energies and kinetic energies (alpha):
                                 1                 2
   1         O               -14.203745         21.636537
   2         O                -9.971286         15.575865
   3         O                -1.054711          1.730444
   4         O                -0.782737          1.397094
   5         O                -0.672241          1.200506
   6         O                -0.657885          1.218402
   7         O                -0.567060          1.379983
   8         O                -0.504029          1.073793
   9         O                -0.488374          1.072072
  10         V                 0.005187          2.779240
  11         V                 0.041942          2.525470
  12         V                 0.061763          2.165207
  13         V                 0.077688          2.211267
  14         V                 0.210831          2.183714
  15         V                 0.229675          2.239730
  16         V                 0.254168          2.547851
 Total kinetic energy from orbitals= 9.256939365740D+01
 No NMR shielding tensors so no spin-rotation constants.
 Leave Link  601 at Thu Feb  1 11:02:54 2024, MaxMem=   131072000 cpu:               0.1 elap:               0.1
 (Enter /trinity/shared/software/gaussian/g16_A03/g16/l602.exe)
 FitSet:  NAtFit=     8 NAtPot=     8 NAtFrz=     0 MDM=    12 TotChg=   1.00000
 Merz-Kollman atomic radii used.

 **********************************************************************

            Electrostatic Properties Using The SCF Density

 **********************************************************************

       Atomic Center    1 is at  47.836988 85.642593 31.071029
       Atomic Center    2 is at  47.700575 84.903772 30.321400
       Atomic Center    3 is at  47.178187 86.476115 30.939614
       Atomic Center    4 is at  48.828848 86.031856 31.033679
       Atomic Center    5 is at  47.575017 85.031747 32.450432
       Atomic Center    6 is at  48.295315 84.226055 32.687522
       Atomic Center    7 is at  46.509001 84.726930 32.524776
       Atomic Center    8 is at  47.715413 85.846721 33.115988
      Read-in Center  469 is at  46.917134 86.304965 34.231939
      Read-in Center  470 is at  48.855560 86.962286 33.289353
      Read-in Center  471 is at  49.572498 86.845292 32.601657
      Read-in Center  472 is at  49.097264 88.145549 34.151012
      Read-in Center  473 is at  49.230635 87.815923 35.184515
      Read-in Center  474 is at  50.391131 88.864167 33.731120
      Read-in Center  475 is at  50.553556 89.723820 34.392167
      Read-in Center  476 is at  51.239048 88.188352 33.832959
      Read-in Center  477 is at  50.358873 89.235516 32.363837
      Read-in Center  478 is at  50.933707 89.995749 32.233717
      Read-in Center  479 is at  47.892847 89.107915 34.167461
      Read-in Center  480 is at  47.557430 89.603472 33.070351
      Read-in Center  481 is at  47.290000 89.260000 35.250000
      Read-in Center  482 is at  46.487196 86.370374 34.658411
      Read-in Center  483 is at  47.347071 86.239555 33.805467
      Read-in Center  484 is at  49.383644 87.346003 33.243222
      Read-in Center  485 is at  48.327475 86.578570 33.335483
     460 points will be used for fitting atomic charges
 Fitting point charges to electrostatic potential
 Charges from ESP fit, RMS=   0.00177 RRMS=   0.01044:
 ESP charges:
               1
     1  N   -0.229681
     2  H    0.309333
     3  H    0.346700
     4  H    0.316532
     5  C   -0.078474
     6  H    0.125737
     7  H    0.148947
     8  H    0.060907
 Sum of ESP charges =   1.00000
 ESP charges with hydrogens summed into heavy atoms:
               1
     1  N    0.742884
     5  C    0.257116
 Charge=   1.00000 Dipole=   229.3690   411.0204   149.9457 Tot=   493.9955
 -----------------------------------------------------------------

              Electrostatic Properties (Atomic Units)

 -----------------------------------------------------------------
    Center     Electric         -------- Electric Field --------
               Potential          X             Y             Z
 -----------------------------------------------------------------
    1 Atom    -17.601124     -0.004229     -0.010983      0.021897
    2 Atom     -0.683482     -0.004470     -0.026560     -0.029879
    3 Atom     -0.658139     -0.018630      0.016275     -0.006673
    4 Atom     -0.685621      0.036361      0.007572     -0.001062
    5 Atom    -14.228699     -0.008019     -0.028078      0.045675
    6 Atom     -0.865710      0.019006     -0.029831      0.014748
    7 Atom     -0.845071     -0.021948     -0.017973      0.011570
    8 Atom     -0.915680      0.014405      0.064010      0.080048
  469           0.163121     -0.010999      0.007763      0.026543
  470           0.182612      0.014210      0.016130      0.022570
  471           0.194416      0.021339      0.016453      0.025172
  472           0.125049      0.004921      0.009394      0.010893
  473           0.108428      0.003614      0.005454      0.009506
  474           0.106472      0.005835      0.007423      0.006015
  475           0.088447      0.003594      0.005383      0.004262
  476           0.103093      0.007045      0.005370      0.005694
  477           0.113687      0.007017      0.010198      0.003675
  478           0.095402      0.005142      0.007283      0.001897
  479           0.112808      0.000450      0.009454      0.008120
  480           0.117738     -0.000450      0.012203      0.006167
  481           0.095256     -0.000697      0.006006      0.006600
  482           0.139076     -0.006531      0.004847      0.017037
  483           0.224875     -0.049205      0.047516      0.101608
  484           0.161266      0.011886      0.013328      0.016915
  485           0.223729      0.047655      0.054385      0.037436
 -----------------------------------------------------------------
 Leave Link  602 at Thu Feb  1 11:02:54 2024, MaxMem=   131072000 cpu:               0.0 elap:               0.1
 (Enter /trinity/shared/software/gaussian/g16_A03/g16/l701.exe)
 ... and contract with generalized density number  0.
 Compute integral first derivatives.
 Leave Link  701 at Thu Feb  1 11:02:54 2024, MaxMem=   131072000 cpu:               0.1 elap:               0.1
 (Enter /trinity/shared/software/gaussian/g16_A03/g16/l702.exe)
 L702 exits ... SP integral derivatives will be done elsewhere.
 Leave Link  702 at Thu Feb  1 11:02:54 2024, MaxMem=   131072000 cpu:               0.0 elap:               0.0
 (Enter /trinity/shared/software/gaussian/g16_A03/g16/l703.exe)
 Integral derivatives from FoFJK, PRISM(SPDF).
 Compute integral first derivatives, UseDBF=F ICtDFT=           0.
 Calling FoFJK, ICntrl=      2527 FMM=F ISym2X=0 I1Cent= 0 IOpClX= 0 NMat=1 NMatS=1 NMatT=0.
 FoFJK:  IHMeth= 1 ICntrl=    2527 DoSepK=F KAlg= 0 I1Cent=           0 FoldK=F
 IRaf=         0 NMat=       1 IRICut=       1 DoRegI=T DoRafI=F ISym2E= 0 IDoP0=0 IntGTp=1.
 FoFCou: FMM=F IPFlag=           0 FMFlag=      100000 FMFlg1=         800
         NFxFlg=           0 DoJE=F BraDBF=F KetDBF=F FulRan=T
         wScrn=  0.000000 ICntrl=      2527 IOpCl=  0 I1Cent=           0 NGrid=           0
         NMat0=    1 NMatS0=      1 NMatT0=    0 NMatD0=    1 NMtDS0=    0 NMtDT0=    0
 Symmetry not used in FoFCou.
 Leave Link  703 at Thu Feb  1 11:02:55 2024, MaxMem=   131072000 cpu:               0.8 elap:               0.7
 (Enter /trinity/shared/software/gaussian/g16_A03/g16/l716.exe)
 Dipole        = 9.02400190D+01 1.61700917D+02 5.89936068D+01
 -------------------------------------------------------------------
 Center     Atomic                   Forces (Hartrees/Bohr)
 Number     Number              X              Y              Z
 -------------------------------------------------------------------
      1        7           0.001788349    0.002842979    0.003749865
      2        1          -0.000754222    0.002481645   -0.009567872
      3        1          -0.002822833    0.001232183   -0.004980415
      4        1           0.002242666    0.000336512   -0.007855530
      5        6          -0.010939406   -0.017330358   -0.004486960
      6        1           0.001096309   -0.004941699   -0.004287869
      7        1           0.000554101   -0.003497639   -0.000727596
      8        1           0.003231020    0.005541612    0.007709844
 -------------------------------------------------------------------
 Cartesian Forces:  Max     0.017330358 RMS     0.005854381
 Force constants in Cartesian coordinates: 
                1             2             3             4             5 
      1  0.737498D+00
      2  0.143409D-02  0.757332D+00
      3  0.838310D-02  0.458357D-01  0.687823D+00
      4 -0.303133D-01 -0.223881D-01 -0.213581D-01  0.179873D+00
      5 -0.248658D-01 -0.160949D+00 -0.134295D+00  0.233678D-01  0.305588D+00
      6 -0.293236D-01 -0.163286D+00 -0.203985D+00  0.306871D-01  0.141990D+00
      7 -0.128856D+00  0.132693D+00 -0.225916D-01  0.495511D-01 -0.433896D-02
      8  0.145237D+00 -0.210788D+00  0.311911D-01 -0.650927D-02  0.590887D-01
      9 -0.405467D-01  0.511474D-01 -0.416271D-01 -0.440123D-02  0.236064D-01
     10 -0.282662D+00 -0.102309D+00  0.137900D-01  0.555095D-01  0.293024D-02
     11 -0.112181D+00 -0.697065D-01  0.473923D-02  0.844362D-02  0.536279D-01
     12  0.395360D-01  0.143438D-01 -0.337078D-01  0.181475D-01  0.178014D-01
     13 -0.720817D-01 -0.117302D-01  0.294214D-01  0.177707D-01  0.321086D-02
     14 -0.110790D-01 -0.962493D-01  0.684005D-01  0.394644D-02  0.280761D-01
     15  0.301994D-01  0.735935D-01 -0.219577D+00 -0.172413D-02 -0.370977D-02
     16  0.223190D-01 -0.352958D-02 -0.422972D-02  0.294281D-01 -0.390746D-02
     17 -0.478578D-03  0.200880D-01 -0.648725D-02  0.209321D-01 -0.709180D-03
     18 -0.766055D-02 -0.421946D-02  0.331276D-01  0.298836D-01 -0.424728D-01
     19  0.228251D-01  0.234632D-02 -0.147634D-02  0.215948D-01 -0.167292D-02
     20 -0.865497D-03  0.186271D-01 -0.711088D-02 -0.329687D-01  0.143454D-01
     21  0.302112D-02 -0.673118D-02  0.337341D-01 -0.499380D-01 -0.205770D-01
     22  0.170498D-01  0.348331D-02 -0.193865D-02 -0.376354D-01  0.527627D-02
     23  0.279919D-02  0.274249D-01 -0.227390D-02  0.517623D-02 -0.132885D-01
     24 -0.360887D-02 -0.106839D-01  0.299916D-01 -0.129674D-02  0.176563D-01
                6             7             8             9            10 
      6  0.262831D+00
      7  0.495807D-02  0.269673D+00
      8 -0.322424D-02 -0.126026D+00  0.316720D+00
      9  0.362951D-01  0.204471D-01 -0.608462D-03  0.140970D+00
     10 -0.305719D-02  0.614186D-01  0.383433D-02 -0.548094D-02  0.396228D+00
     11  0.358472D-03 -0.140044D-01  0.467293D-01  0.942317D-02  0.835836D-01
     12  0.379929D-01  0.134964D-01  0.586496D-02  0.375027D-01  0.668793D-02
     13 -0.365173D-02  0.208271D-01 -0.993541D-03 -0.891184D-02  0.221228D-01
     14 -0.958676D-02 -0.368791D-02  0.206796D-01 -0.132451D-02  0.277225D-02
     15  0.310785D-01 -0.434237D-02 -0.732552D-02  0.327271D-01 -0.128478D-02
     16  0.125513D-02 -0.220966D-01 -0.228933D-01  0.596634D-02 -0.301231D-02
     17  0.114398D-01 -0.256160D-01  0.538327D-03 -0.310770D-01 -0.140226D-01
     18  0.490410D-01  0.551321D-02 -0.287350D-01 -0.648037D-02  0.756758D-02
     19  0.572823D-03 -0.772390D-04 -0.115169D-01  0.727341D-02  0.103883D-01
     20  0.684949D-02  0.449582D-01  0.477972D-01 -0.123480D-01  0.251258D-01
     21  0.423736D-01 -0.189303D-01 -0.810803D-02  0.368533D-01 -0.189980D-01
     22 -0.144063D-02  0.353388D-01  0.188680D-01  0.256538D-01  0.257860D-01
     23  0.154593D-01 -0.397803D-02  0.501395D-02 -0.388191D-01 -0.191477D-02
     24  0.301514D-01  0.144944D-02  0.109452D-01  0.495383D-01  0.775459D-03
               11            12            13            14            15 
     11  0.199257D+00
     12  0.166123D-01  0.140160D+00
     13  0.133944D-02  0.544679D-02  0.708995D+00
     14  0.187277D-01 -0.468424D-02 -0.155839D-01  0.719334D+00
     15 -0.787254D-02  0.342407D-01  0.142492D-01  0.204606D-01  0.638859D+00
     16  0.423566D-01 -0.205955D-01 -0.126398D+00  0.112857D+00 -0.322796D-01
     17  0.479722D-01 -0.102774D-01  0.120639D+00 -0.162309D+00  0.479527D-01
     18 -0.120863D-01  0.362598D-01 -0.518493D-01  0.675561D-01 -0.420109D-01
     19  0.218150D-01 -0.188511D-01 -0.252244D+00 -0.655476D-01  0.181417D-01
     20 -0.273388D-01 -0.191666D-01 -0.703557D-01 -0.474928D-01  0.134655D-01
     21 -0.183481D-01 -0.101370D-01  0.451685D-01  0.212331D-01 -0.243483D-01
     22 -0.313529D-01 -0.438680D-01 -0.332134D-01 -0.236772D-01 -0.229594D-01
     23  0.165104D-01 -0.204943D-01 -0.265265D-01 -0.194988D+00 -0.136564D+00
     24  0.717373D-02  0.434676D-01 -0.298731D-01 -0.162055D+00 -0.165190D+00
               16            17            18            19            20 
     16  0.270324D+00
     17 -0.102132D+00  0.277637D+00
     18  0.307689D-01 -0.118581D-01  0.145916D+00
     19  0.655961D-01  0.645456D-02 -0.650057D-02  0.364357D+00
     20 -0.197325D-01  0.431117D-01  0.649016D-02  0.461479D-01  0.182780D+00
     21  0.142820D-01  0.298224D-02  0.351304D-01  0.309187D-02  0.120180D-01
     22  0.496184D-01 -0.577713D-02 -0.772289D-02  0.533396D-01  0.769056D-02
     23 -0.301888D-02  0.594500D-01  0.253254D-01  0.197359D-02  0.539490D-01
     24  0.483255D-02 -0.267490D-02  0.347954D-01 -0.225174D-02 -0.197710D-03
               21            22            23            24 
     21  0.136579D+00
     22  0.223028D-01  0.175495D+00
     23  0.175309D-01  0.254892D-01  0.331707D+00
     24  0.355939D-01  0.299730D-01  0.139836D+00  0.227431D+00
 Leave Link  716 at Thu Feb  1 11:02:55 2024, MaxMem=   131072000 cpu:               0.0 elap:               0.0
 (Enter /trinity/shared/software/gaussian/g16_A03/g16/l103.exe)

 GradGradGradGradGradGradGradGradGradGradGradGradGradGradGradGradGradGrad
 Berny optimization.
 Search for a local minimum.
 Step number   1 out of a maximum of    2
 All quantities printed in internal units (Hartrees-Bohrs-Radians)
 Second derivative matrix not updated -- first step.
 ITU=  0
     Eigenvalues ---    0.00371   0.04303   0.04366   0.05483   0.08476
     Eigenvalues ---    0.08647   0.13675   0.13858   0.14769   0.15137
     Eigenvalues ---    0.20471   0.29856   0.52382   0.79728   0.84150
     Eigenvalues ---    0.94426   0.98460   0.98877
 Angle between quadratic step and forces=  66.71 degrees.
 Linear search not attempted -- first point.
 Variable       Old X    -DE/DX   Delta X   Delta X   Delta X     New X
                                 (Linear)    (Quad)   (Total)
    X1       90.39881   0.00179   0.00000   0.01151   0.01151  90.41032
    Y1      161.84105   0.00284   0.00000   0.01036   0.01036 161.85140
    Z1       58.71574   0.00375   0.00000  -0.00500  -0.00500  58.71073
    X2       90.14102  -0.00075   0.00000   0.07881   0.07881  90.21984
    Y2      160.44488   0.00248   0.00000   0.02601   0.02601 160.47088
    Z2       57.29914  -0.00957   0.00000  -0.04662  -0.04662  57.25252
    X3       89.15385  -0.00282   0.00000  -0.03788  -0.03788  89.11597
    Y3      163.41617   0.00123   0.00000  -0.03416  -0.03416 163.38201
    Z3       58.46740  -0.00498   0.00000  -0.09694  -0.09694  58.37046
    X4       92.27315   0.00224   0.00000  -0.00407  -0.00407  92.26908
    Y4      162.57665   0.00034   0.00000   0.06733   0.06733 162.64398
    Z4       58.64515  -0.00786   0.00000  -0.06330  -0.06330  58.58185
    X5       89.90375  -0.01094   0.00000  -0.01944  -0.01944  89.88432
    Y5      160.68671  -0.01733   0.00000  -0.01250  -0.01250 160.67422
    Z5       61.32243  -0.00449   0.00000   0.03004   0.03004  61.35247
    X6       91.26492   0.00110   0.00000  -0.04868  -0.04868  91.21623
    Y6      159.16418  -0.00494   0.00000  -0.05853  -0.05853 159.10565
    Z6       61.77046  -0.00429   0.00000  -0.00556  -0.00556  61.76491
    X7       87.88927   0.00055   0.00000  -0.02538  -0.02538  87.86390
    Y7      160.11069  -0.00350   0.00000   0.02125   0.02125 160.13194
    Z7       61.46292  -0.00073   0.00000   0.07559   0.07559  61.53851
    X8       90.16906   0.00323   0.00000   0.05435   0.05435  90.22341
    Y8      162.22679   0.00554   0.00000  -0.01869  -0.01869 162.20810
    Z8       62.58015   0.00771   0.00000   0.07647   0.07647  62.65662
         Item               Value     Threshold  Converged?
 Maximum Force            0.017330     0.000450     NO 
 RMS     Force            0.005854     0.000300     NO 
 Maximum Displacement     0.096939     0.001800     NO 
 RMS     Displacement     0.047041     0.001200     NO 
 Predicted change in Energy=-1.306597D-03
 GradGradGradGradGradGradGradGradGradGradGradGradGradGradGradGradGradGrad

 Leave Link  103 at Thu Feb  1 11:02:55 2024, MaxMem=   131072000 cpu:               0.0 elap:               0.0
 (Enter /trinity/shared/software/gaussian/g16_A03/g16/l9999.exe)

 Test job not archived.
 1\1\GINC-C100\Force\RBP86\STO-3G\C1H6N1(1+)\JANSEA92\01-Feb-2024\0\\#P
  BP86/STO-3G guess=read nosymm gfinput gfprint force charge guess=huck
 el punch=derivatives iop(3/33=1,6/7=3) prop(field,read) pop=esp\\QM pa
 rt of step 35\\1,1\N,47.836988,85.642593,31.071029\H,47.700575,84.9037
 72,30.3214\H,47.178187,86.476115,30.939614\H,48.828848,86.031856,31.03
 3679\C,47.575017,85.031747,32.450432\H,48.295315,84.226055,32.687522\H
 ,46.509001,84.72693,32.524776\H,47.715413,85.846721,33.115988\\Version
 =ES64L-G16RevA.03\HF=-95.7898827\RMSD=7.727e-09\RMSF=5.854e-03\Dipole=
 0.0765749,0.3879191,-0.9627061\Quadrupole=-4447.0300769,13556.9951484,
 -9109.9650716,14591.9692549,5323.2325537,9538.5949259\PG=C01 [X(C1H6N1
 )]\\@


 TO BEHOLD HARMS OF OUR OWN HANDS DOING,
 WHERE NONE BESIDE US WROUGHT,
 CAUSES SHARP RUING...

                                         SOPHOCLES
 Job cpu time:       0 days  0 hours  0 minutes  2.7 seconds.
 Elapsed time:       0 days  0 hours  0 minutes  2.9 seconds.
 File lengths (MBytes):  RWF=     17 Int=      0 D2E=      0 Chk=      2 Scr=      2
 Normal termination of Gaussian 16 at Thu Feb  1 11:02:56 2024.
