 Entering Gaussian System, Link 0=g16
 Input=testopt.2.gjf
 Output=testopt.2.log
 Initial command:
 /trinity/shared/software/gaussian/g16_A03/g16/l1.exe "/home/jansea92/qmmm_revision/example/opt_bfgs/Gau-251190.inp" -scrdir="/home/jansea92/qmmm_revision/example/opt_bfgs/"
 Entering Link 1 = /trinity/shared/software/gaussian/g16_A03/g16/l1.exe PID=    251191.
  
 Copyright (c) 1988,1990,1992,1993,1995,1998,2003,2009,2016,
            Gaussian, Inc.  All Rights Reserved.
  
 This is part of the Gaussian(R) 16 program.  It is based on
 the Gaussian(R) 09 system (copyright 2009, Gaussian, Inc.),
 the Gaussian(R) 03 system (copyright 2003, Gaussian, Inc.),
 the Gaussian(R) 98 system (copyright 1998, Gaussian, Inc.),
 the Gaussian(R) 94 system (copyright 1995, Gaussian, Inc.),
 the Gaussian 92(TM) system (copyright 1992, Gaussian, Inc.),
 the Gaussian 90(TM) system (copyright 1990, Gaussian, Inc.),
 the Gaussian 88(TM) system (copyright 1988, Gaussian, Inc.),
 the Gaussian 86(TM) system (copyright 1986, Carnegie Mellon
 University), and the Gaussian 82(TM) system (copyright 1983,
 Carnegie Mellon University). Gaussian is a federally registered
 trademark of Gaussian, Inc.
  
 This software contains proprietary and confidential information,
 including trade secrets, belonging to Gaussian, Inc.
  
 This software is provided under written license and may be
 used, copied, transmitted, or stored only in accord with that
 written license.
  
 The following legend is applicable only to US Government
 contracts under FAR:
  
                    RESTRICTED RIGHTS LEGEND
  
 Use, reproduction and disclosure by the US Government is
 subject to restrictions as set forth in subparagraphs (a)
 and (c) of the Commercial Computer Software - Restricted
 Rights clause in FAR 52.227-19.
  
 Gaussian, Inc.
 340 Quinnipiac St., Bldg. 40, Wallingford CT 06492
  
  
 ---------------------------------------------------------------
 Warning -- This program may not be used in any manner that
 competes with the business of Gaussian, Inc. or will provide
 assistance to any competitor of Gaussian, Inc.  The licensee
 of this program is prohibited from giving any competitor of
 Gaussian, Inc. access to this program.  By using this program,
 the user acknowledges that Gaussian, Inc. is engaged in the
 business of creating and licensing software in the field of
 computational chemistry and represents and warrants to the
 licensee that it is not a competitor of Gaussian, Inc. and that
 it will not use this program in any manner prohibited above.
 ---------------------------------------------------------------
  

 Cite this work as:
 Gaussian 16, Revision A.03,
 M. J. Frisch, G. W. Trucks, H. B. Schlegel, G. E. Scuseria, 
 M. A. Robb, J. R. Cheeseman, G. Scalmani, V. Barone, 
 G. A. Petersson, H. Nakatsuji, X. Li, M. Caricato, A. V. Marenich, 
 J. Bloino, B. G. Janesko, R. Gomperts, B. Mennucci, H. P. Hratchian, 
 J. V. Ortiz, A. F. Izmaylov, J. L. Sonnenberg, D. Williams-Young, 
 F. Ding, F. Lipparini, F. Egidi, J. Goings, B. Peng, A. Petrone, 
 T. Henderson, D. Ranasinghe, V. G. Zakrzewski, J. Gao, N. Rega, 
 G. Zheng, W. Liang, M. Hada, M. Ehara, K. Toyota, R. Fukuda, 
 J. Hasegawa, M. Ishida, T. Nakajima, Y. Honda, O. Kitao, H. Nakai, 
 T. Vreven, K. Throssell, J. A. Montgomery, Jr., J. E. Peralta, 
 F. Ogliaro, M. J. Bearpark, J. J. Heyd, E. N. Brothers, K. N. Kudin, 
 V. N. Staroverov, T. A. Keith, R. Kobayashi, J. Normand, 
 K. Raghavachari, A. P. Rendell, J. C. Burant, S. S. Iyengar, 
 J. Tomasi, M. Cossi, J. M. Millam, M. Klene, C. Adamo, R. Cammi, 
 J. W. Ochterski, R. L. Martin, K. Morokuma, O. Farkas, 
 J. B. Foresman, and D. J. Fox, Gaussian, Inc., Wallingford CT, 2016.
 
 ******************************************
 Gaussian 16:  ES64L-G16RevA.03 25-Dec-2016
                11-Mar-2024 
 ******************************************
 %NPROCSHARED=1
 Will use up to    1 processors via shared memory.
 %MEM=1000MB
 %CHK=testopt.2.chk
 %OLDCHK=testopt.1.chk
 Copying data from "testopt.1.chk" to current chk file "testopt.2.chk"
 IOpt=  2 FromEx=T IUOpen= 4 IOptOp= 5 NList=   0 IFRang= 0 IUIn= 4 IUOut= 2.
 ----------------------------------------------------------------------
 #P BP86/STO-3G guess=read nosymm gfinput gfprint force charge guess=hu
 ckel punch=derivatives iop(3/33=1,6/7=3) prop(field,read) pop=esp
 ----------------------------------------------------------------------
 1/10=7,18=10,28=-2,30=1,38=1,125=101/1,3;
 2/12=2,15=1,17=6,18=5,29=2,40=1/2;
 3/6=3,11=2,24=110,25=1,30=1,33=1,71=1,74=404,116=-2/1,2,3;
 4/5=1,11=4/1;
 5/5=2,38=6/2;
 6/7=3,8=2,9=2,10=2,14=2,15=9,28=1/1,2;
 7/7=1,16=-2,29=1,30=1/1,2,3,16;
 1/10=7,18=10,28=-2,30=1/3;
 99/10=4,12=1/99;
 Leave Link    1 at Mon Mar 11 07:11:52 2024, MaxMem=   131072000 cpu:               0.0 elap:               0.1
 (Enter /trinity/shared/software/gaussian/g16_A03/g16/l101.exe)
 -----------------
 QM part of step 2
 -----------------
 Symbolic Z-matrix:
 Charge =  1 Multiplicity = 1
 N                     47.86662   85.61567   31.12118 
 H                     47.70036   84.86401   30.46399 
 H                     47.20043   86.37318   30.90002 
 H                     48.80158   85.96234   31.05757 
 C                     47.57763   85.16768   32.47332 
 H                     48.21314   84.38432   32.67544 
 H                     46.60978   84.80388   32.50051 
 H                     47.70665   85.95168   33.18169 
 
 ITRead=  0  0  0  0  0  0  0  0
 MicOpt= -1 -1 -1 -1 -1 -1 -1 -1
 NAtoms=      8 NQM=        8 NQMF=       0 NMMI=      0 NMMIF=      0
                NMic=       0 NMicF=      0.
                    Isotopes and Nuclear Properties:
 (Nuclear quadrupole moments (NQMom) in fm**2, nuclear magnetic moments (NMagM)
  in nuclear magnetons)

  Atom         1           2           3           4           5           6           7           8
 IAtWgt=          14           1           1           1          12           1           1           1
 AtmWgt=  14.0030740   1.0078250   1.0078250   1.0078250  12.0000000   1.0078250   1.0078250   1.0078250
 NucSpn=           2           1           1           1           0           1           1           1
 AtZEff=  -0.0000000  -0.0000000  -0.0000000  -0.0000000  -0.0000000  -0.0000000  -0.0000000  -0.0000000
 NQMom=    2.0440000   0.0000000   0.0000000   0.0000000   0.0000000   0.0000000   0.0000000   0.0000000
 NMagM=    0.4037610   2.7928460   2.7928460   2.7928460   0.0000000   2.7928460   2.7928460   2.7928460
 AtZNuc=   7.0000000   1.0000000   1.0000000   1.0000000   6.0000000   1.0000000   1.0000000   1.0000000
 Background charge distribution read from input stream:
 Point Charges:
 XYZ=   46.9499   86.4365   34.3671 Q=   -0.2861 A=    0.0000 R=    0.0000 C=    0.0000
 XYZ=   48.8604   87.0070   33.3380 Q=   -0.0960 A=    0.0000 R=    0.0000 C=    0.0000
 XYZ=   49.5204   86.7815   32.6208 Q=    0.2681 A=    0.0000 R=    0.0000 C=    0.0000
 XYZ=   49.1388   88.1527   34.2005 Q=   -0.2722 A=    0.0000 R=    0.0000 C=    0.0000
 XYZ=   49.2904   87.7685   35.1384 Q=    0.1304 A=    0.0000 R=    0.0000 C=    0.0000
 XYZ=   50.3728   88.8968   33.7564 Q=    0.1123 A=    0.0000 R=    0.0000 C=    0.0000
 XYZ=   50.5718   89.6475   34.3968 Q=    0.0813 A=    0.0000 R=    0.0000 C=    0.0000
 XYZ=   51.1669   88.2647   33.7402 Q=    0.0813 A=    0.0000 R=    0.0000 C=    0.0000
 XYZ=   50.1815   89.4180   32.4955 Q=   -0.6514 A=    0.0000 R=    0.0000 C=    0.0000
 XYZ=   50.9514   89.8919   32.2198 Q=    0.4474 A=    0.0000 R=    0.0000 C=    0.0000
 XYZ=   47.9584   89.0696   34.2664 Q=    0.8113 A=    0.0000 R=    0.0000 C=    0.0000
 XYZ=   47.6863   89.6035   33.3351 Q=   -0.8132 A=    0.0000 R=    0.0000 C=    0.0000
 XYZ=   47.2900   89.2600   35.2500 Q=   -0.8132 A=    0.0000 R=    0.0000 C=    0.0000
 XYZ=   46.5429   86.5217   34.8202 Q=   -0.2758 A=    0.0000 R=    0.0000 C=    0.0000
 XYZ=   47.3570   86.3514   33.9140 Q=    0.2758 A=    0.0000 R=    0.0000 C=    0.0000
 XYZ=   49.4012   87.3700   33.2746 Q=   -0.2834 A=    0.0000 R=    0.0000 C=    0.0000
 XYZ=   48.3197   86.6440   33.4013 Q=    0.2834 A=    0.0000 R=    0.0000 C=    0.0000
 Pt Chg Charge=             -1.0000 electrons
 Pt Chg Dipole moment (Debye):
    X=           -221.7503    Y=           -429.3605    Z=           -166.3047  Tot=            511.0586
 Pt Chg Quadrupole moment (Debye-Ang):
   XX=         -10214.7568   YY=         -38379.5311   ZZ=          -5762.2091
   XY=         -19829.3583   XZ=          -7680.4598   YZ=         -14858.4902
 Pt Chg Traceless Quadrupole moment (Debye-Ang):
   XX=           7904.0755   YY=         -20260.6988   ZZ=          12356.6233
   XY=         -19829.3583   XZ=          -7680.4598   YZ=         -14858.4902
 Pt Chg Octapole moment (Debye-Ang**2):
  XXX=        -469327.1845  YYY=       -3430554.6688  ZZZ=        -199796.5489  XYY=       -1773093.2213
  XXY=        -913760.7060  XXZ=        -353948.6867  XZZ=        -266200.6400  YZZ=        -514572.8307
  YYZ=       -1327517.0610  XYZ=        -686443.4490
 Pt Chg Hexadecapole moment (Debye-Ang**3):
 XXXX=      -21499685.4929 YYYY=     -306631469.6079 ZZZZ=       -6932712.8523 XXXY=      -41999874.3344
 XXXZ=      -16271392.6549 YYYX=     -158538152.1309 YYYZ=     -118604485.5921 ZZZX=       -9232830.3871
 ZZZY=      -17833728.5538 XXYY=      -81734714.7538 XXZZ=      -12272594.7689 YYZZ=      -45952387.7578
 XXYZ=      -31645438.5510 YYXZ=      -61349367.8129 ZZXY=      -23779819.7479
 Leave Link  101 at Mon Mar 11 07:11:52 2024, MaxMem=   131072000 cpu:               0.2 elap:               0.2
 (Enter /trinity/shared/software/gaussian/g16_A03/g16/l103.exe)

 GradGradGradGradGradGradGradGradGradGradGradGradGradGradGradGradGradGrad
 Berny optimization.
 Initialization pass.
 Trust Radius=3.00D-01 FncErr=1.00D-07 GrdErr=1.00D-07 EigMax=2.50D+02 EigMin=1.00D-04
 Number of steps in this run=      2 maximum allowed number of steps=      2.
 GradGradGradGradGradGradGradGradGradGradGradGradGradGradGradGradGradGrad

 Leave Link  103 at Mon Mar 11 07:11:52 2024, MaxMem=   131072000 cpu:               0.0 elap:               0.0
 (Enter /trinity/shared/software/gaussian/g16_A03/g16/l202.exe)
 ---------------------------------------------------------------------------------------------------
                            Z-MATRIX (ANGSTROMS AND DEGREES)
   CD    Cent   Atom    N1       Length/X        N2       Alpha/Y        N3        Beta/Z          J
 ---------------------------------------------------------------------------------------------------
      1      1  N        0  47.866625         85.615665         31.121175
      2      2  H        0  47.700357         84.864013         30.463985
      3      3  H        0  47.200430         86.373176         30.900022
      4      4  H        0  48.801581         85.962344         31.057568
      5      5  C        0  47.577626         85.167681         32.473319
      6      6  H        0  48.213135         84.384318         32.675442
      7      7  H        0  46.609783         84.803884         32.500511
      8      8  H        0  47.706655         85.951678         33.181695
 ---------------------------------------------------------------------------------------------------
                         Z-Matrix orientation:                         
 ---------------------------------------------------------------------
 Center     Atomic      Atomic             Coordinates (Angstroms)
 Number     Number       Type             X           Y           Z
 ---------------------------------------------------------------------
      1          7           0       47.866625   85.615665   31.121175
      2          1           0       47.700357   84.864013   30.463985
      3          1           0       47.200430   86.373176   30.900022
      4          1           0       48.801581   85.962344   31.057568
      5          6           0       47.577626   85.167681   32.473319
      6          1           0       48.213135   84.384318   32.675442
      7          1           0       46.609783   84.803884   32.500511
      8          1           0       47.706655   85.951678   33.181695
 ---------------------------------------------------------------------
                    Distance matrix (angstroms):
                    1          2          3          4          5
     1  N    0.000000
     2  H    1.012188   0.000000
     3  H    1.032738   1.648523   0.000000
     4  H    0.999187   1.664742   1.660508   0.000000
     5  C    1.453445   2.035854   2.017612   2.033201   0.000000
     6  H    2.012966   2.320257   2.851884   2.335370   1.028777
     7  H    2.034996   2.310932   2.317996   2.868465   1.034315
     8  H    2.093857   2.927286   2.374859   2.389747   1.064470
                    6          7          8
     6  H    0.000000
     7  H    1.666546   0.000000
     8  H    1.723204   1.727591   0.000000
 Symmetry turned off by external request.
 Stoichiometry    CH6N(1+)
 Framework group  C1[X(CH6N)]
 Deg. of freedom    18
 Full point group                 C1      NOp   1
 Rotational constants (GHZ):          88.6284797          21.6704449          21.5528720
 Leave Link  202 at Mon Mar 11 07:11:52 2024, MaxMem=   131072000 cpu:               0.0 elap:               0.0
 (Enter /trinity/shared/software/gaussian/g16_A03/g16/l301.exe)
 Standard basis: STO-3G (5D, 7F)
                         Coordinates in L301:                         
 ---------------------------------------------------------------------
 Center     Atomic      Atomic             Coordinates (Angstroms)
 Number     Number       Type             X           Y           Z
 ---------------------------------------------------------------------
      1          7           0       47.866625   85.615665   31.121175
      2          1           0       47.700357   84.864013   30.463985
      3          1           0       47.200430   86.373176   30.900022
      4          1           0       48.801581   85.962344   31.057568
      5          6           0       47.577626   85.167681   32.473319
      6          1           0       48.213135   84.384318   32.675442
      7          1           0       46.609783   84.803884   32.500511
      8          1           0       47.706655   85.951678   33.181695
 ---------------------------------------------------------------------
 FixB: optimizing general contractions.
 Ernie: Thresh=  0.10000D-02 Tol=  0.10000D-05 Strict=F.
 IA=     1 ShT= 0 ShC= 0 NL=   1 NS=   0.
 IA=     1 L=0 SC=0 ISt=    0 NBk=    0 NP=    0 IndPr=    0.
 IA=     1 ShT= 1 ShC= 0 NL=   1 NS=   0.
 IA=     1 L=1 SC=0 ISt=    0 NBk=    0 NP=    0 IndPr=    0.
 IA=     2 ShT= 0 ShC= 0 NL=   1 NS=   0.
 IA=     2 L=0 SC=0 ISt=    0 NBk=    0 NP=    0 IndPr=    0.
 IA=     3 ShT= 0 ShC= 0 NL=   1 NS=   0.
 IA=     3 L=0 SC=0 ISt=    0 NBk=    0 NP=    0 IndPr=    0.
 IA=     4 ShT= 0 ShC= 0 NL=   1 NS=   0.
 IA=     4 L=0 SC=0 ISt=    0 NBk=    0 NP=    0 IndPr=    0.
 IA=     5 ShT= 0 ShC= 0 NL=   1 NS=   0.
 IA=     5 L=0 SC=0 ISt=    0 NBk=    0 NP=    0 IndPr=    0.
 IA=     5 ShT= 1 ShC= 0 NL=   1 NS=   0.
 IA=     5 L=1 SC=0 ISt=    0 NBk=    0 NP=    0 IndPr=    0.
 IA=     6 ShT= 0 ShC= 0 NL=   1 NS=   0.
 IA=     6 L=0 SC=0 ISt=    0 NBk=    0 NP=    0 IndPr=    0.
 IA=     7 ShT= 0 ShC= 0 NL=   1 NS=   0.
 IA=     7 L=0 SC=0 ISt=    0 NBk=    0 NP=    0 IndPr=    0.
 IA=     8 ShT= 0 ShC= 0 NL=   1 NS=   0.
 IA=     8 L=0 SC=0 ISt=    0 NBk=    0 NP=    0 IndPr=    0.
 AO basis set in the form of general basis input (Overlap normalization):
      1 0
 S   3 1.00       0.000000000000
      0.9910616896D+02  0.1543289673D+00
      0.1805231239D+02  0.5353281423D+00
      0.4885660238D+01  0.4446345422D+00
 SP   3 1.00       0.000000000000
      0.3780455879D+01 -0.9996722919D-01  0.1559162750D+00
      0.8784966449D+00  0.3995128261D+00  0.6076837186D+00
      0.2857143744D+00  0.7001154689D+00  0.3919573931D+00
 ****
      2 0
 S   3 1.00       0.000000000000
      0.3425250914D+01  0.1543289673D+00
      0.6239137298D+00  0.5353281423D+00
      0.1688554040D+00  0.4446345422D+00
 ****
      3 0
 S   3 1.00       0.000000000000
      0.3425250914D+01  0.1543289673D+00
      0.6239137298D+00  0.5353281423D+00
      0.1688554040D+00  0.4446345422D+00
 ****
      4 0
 S   3 1.00       0.000000000000
      0.3425250914D+01  0.1543289673D+00
      0.6239137298D+00  0.5353281423D+00
      0.1688554040D+00  0.4446345422D+00
 ****
      5 0
 S   3 1.00       0.000000000000
      0.7161683735D+02  0.1543289673D+00
      0.1304509632D+02  0.5353281423D+00
      0.3530512160D+01  0.4446345422D+00
 SP   3 1.00       0.000000000000
      0.2941249355D+01 -0.9996722919D-01  0.1559162750D+00
      0.6834830964D+00  0.3995128261D+00  0.6076837186D+00
      0.2222899159D+00  0.7001154689D+00  0.3919573931D+00
 ****
      6 0
 S   3 1.00       0.000000000000
      0.3425250914D+01  0.1543289673D+00
      0.6239137298D+00  0.5353281423D+00
      0.1688554040D+00  0.4446345422D+00
 ****
      7 0
 S   3 1.00       0.000000000000
      0.3425250914D+01  0.1543289673D+00
      0.6239137298D+00  0.5353281423D+00
      0.1688554040D+00  0.4446345422D+00
 ****
      8 0
 S   3 1.00       0.000000000000
      0.3425250914D+01  0.1543289673D+00
      0.6239137298D+00  0.5353281423D+00
      0.1688554040D+00  0.4446345422D+00
 ****

 AO basis set (Overlap normalization):
 Atom N1       Shell     1 S   3     bf    1 -     1         90.454811757259        161.790158822511         58.810497424661
      0.9910616896D+02  0.1543289673D+00
      0.1805231239D+02  0.5353281423D+00
      0.4885660238D+01  0.4446345422D+00
 Atom N1       Shell     2 SP   3    bf    2 -     5         90.454811757259        161.790158822511         58.810497424661
      0.3780455879D+01 -0.9996722919D-01  0.1559162750D+00
      0.8784966449D+00  0.3995128261D+00  0.6076837186D+00
      0.2857143744D+00  0.7001154689D+00  0.3919573931D+00
 Atom H2       Shell     3 S   3     bf    6 -     6         90.140610773980        160.369742401529         57.568588312858
      0.3425250914D+01  0.1543289673D+00
      0.6239137298D+00  0.5353281423D+00
      0.1688554040D+00  0.4446345422D+00
 Atom H3       Shell     4 S   3     bf    7 -     7         89.195885661704        163.221647148856         58.392578823035
      0.3425250914D+01  0.1543289673D+00
      0.6239137298D+00  0.5353281423D+00
      0.1688554040D+00  0.4446345422D+00
 Atom H4       Shell     5 S   3     bf    8 -     8         92.221622535778        162.445287185649         58.690297615056
      0.3425250914D+01  0.1543289673D+00
      0.6239137298D+00  0.5353281423D+00
      0.1688554040D+00  0.4446345422D+00
 Atom C5       Shell     6 S   3     bf    9 -     9         89.908682796986        160.943591754323         61.365679265635
      0.7161683735D+02  0.1543289673D+00
      0.1304509632D+02  0.5353281423D+00
      0.3530512160D+01  0.4446345422D+00
 Atom C5       Shell     7 SP   3    bf   10 -    13         89.908682796986        160.943591754323         61.365679265635
      0.2941249355D+01 -0.9996722919D-01  0.1559162750D+00
      0.6834830964D+00  0.3995128261D+00  0.6076837186D+00
      0.2222899159D+00  0.7001154689D+00  0.3919573931D+00
 Atom H6       Shell     8 S   3     bf   14 -    14         91.109620756682        159.463250228206         61.747636379110
      0.3425250914D+01  0.1543289673D+00
      0.6239137298D+00  0.5353281423D+00
      0.1688554040D+00  0.4446345422D+00
 Atom H7       Shell     9 S   3     bf   15 -    15         88.079724595409        160.256115059385         61.417064698414
      0.3425250914D+01  0.1543289673D+00
      0.6239137298D+00  0.5353281423D+00
      0.1688554040D+00  0.4446345422D+00
 Atom H8       Shell    10 S   3     bf   16 -    16         90.152512269112        162.425131366804         62.704315898850
      0.3425250914D+01  0.1543289673D+00
      0.6239137298D+00  0.5353281423D+00
      0.1688554040D+00  0.4446345422D+00
 LdAtmC:  AtmChg=     7.000000     1.000000     1.000000     1.000000     6.000000
 LdAtmC:  AtmChg=     1.000000     1.000000     1.000000
 AtZEff=     -4.5500000     -1.0000000     -1.0000000     -1.0000000     -3.6000000
 AtZEff=     -1.0000000     -1.0000000     -1.0000000
    16 basis functions,    48 primitive gaussians,    16 cartesian basis functions
     9 alpha electrons        9 beta electrons
       nuclear repulsion energy        49.3039130326 Hartrees.
 IS=     1 IAt=     1 ISR=     1 T=0 IP=      1 IndIP=      1 IndIPD=      0 C=  3.454881D+00  0.000000D+00                             NZ=T
 IS=     1 IAt=     1 ISR=     1 T=0 IP=      2 IndIP=      2 IndIPD=      1 C=  3.341410D+00  0.000000D+00                             NZ=T
 IS=     1 IAt=     1 ISR=     1 T=0 IP=      3 IndIP=      3 IndIPD=      2 C=  1.041372D+00  0.000000D+00                             NZ=T
 IS=     2 IAt=     1 ISR=     2 T=1 IP=      1 IndIP=      4 IndIPD=      0 C= -1.931639D-01  1.171553D+00                             NZ=T
 IS=     2 IAt=     1 ISR=     2 T=1 IP=      2 IndIP=      5 IndIPD=      1 C=  2.583723D-01  7.367037D-01                             NZ=T
 IS=     2 IAt=     1 ISR=     2 T=1 IP=      3 IndIP=      6 IndIPD=      2 C=  1.949974D-01  1.167062D-01                             NZ=T
 IS=     3 IAt=     2 ISR=     1 T=0 IP=      1 IndIP=      7 IndIPD=      0 C=  2.769344D-01  0.000000D+00                             NZ=T
 IS=     3 IAt=     2 ISR=     1 T=0 IP=      2 IndIP=      8 IndIPD=      1 C=  2.678389D-01  0.000000D+00                             NZ=T
 IS=     3 IAt=     2 ISR=     1 T=0 IP=      3 IndIP=      9 IndIPD=      2 C=  8.347367D-02  0.000000D+00                             NZ=T
 IS=     4 IAt=     3 ISR=     1 T=0 IP=      1 IndIP=     10 IndIPD=      0 C=  2.769344D-01  0.000000D+00                             NZ=T
 IS=     4 IAt=     3 ISR=     1 T=0 IP=      2 IndIP=     11 IndIPD=      1 C=  2.678389D-01  0.000000D+00                             NZ=T
 IS=     4 IAt=     3 ISR=     1 T=0 IP=      3 IndIP=     12 IndIPD=      2 C=  8.347367D-02  0.000000D+00                             NZ=T
 IS=     5 IAt=     4 ISR=     1 T=0 IP=      1 IndIP=     13 IndIPD=      0 C=  2.769344D-01  0.000000D+00                             NZ=T
 IS=     5 IAt=     4 ISR=     1 T=0 IP=      2 IndIP=     14 IndIPD=      1 C=  2.678389D-01  0.000000D+00                             NZ=T
 IS=     5 IAt=     4 ISR=     1 T=0 IP=      3 IndIP=     15 IndIPD=      2 C=  8.347367D-02  0.000000D+00                             NZ=T
 IS=     6 IAt=     5 ISR=     1 T=0 IP=      1 IndIP=     16 IndIPD=      0 C=  2.707814D+00  0.000000D+00                             NZ=T
 IS=     6 IAt=     5 ISR=     1 T=0 IP=      2 IndIP=     17 IndIPD=      1 C=  2.618880D+00  0.000000D+00                             NZ=T
 IS=     6 IAt=     5 ISR=     1 T=0 IP=      3 IndIP=     18 IndIPD=      2 C=  8.161906D-01  0.000000D+00                             NZ=T
 IS=     7 IAt=     5 ISR=     2 T=1 IP=      1 IndIP=     19 IndIPD=      0 C= -1.600172D-01  8.560445D-01                             NZ=T
 IS=     7 IAt=     5 ISR=     2 T=1 IP=      2 IndIP=     20 IndIPD=      1 C=  2.140359D-01  5.383038D-01                             NZ=T
 IS=     7 IAt=     5 ISR=     2 T=1 IP=      3 IndIP=     21 IndIPD=      2 C=  1.615361D-01  8.527636D-02                             NZ=T
 IS=     8 IAt=     6 ISR=     1 T=0 IP=      1 IndIP=     22 IndIPD=      0 C=  2.769344D-01  0.000000D+00                             NZ=T
 IS=     8 IAt=     6 ISR=     1 T=0 IP=      2 IndIP=     23 IndIPD=      1 C=  2.678389D-01  0.000000D+00                             NZ=T
 IS=     8 IAt=     6 ISR=     1 T=0 IP=      3 IndIP=     24 IndIPD=      2 C=  8.347367D-02  0.000000D+00                             NZ=T
 IS=     9 IAt=     7 ISR=     1 T=0 IP=      1 IndIP=     25 IndIPD=      0 C=  2.769344D-01  0.000000D+00                             NZ=T
 IS=     9 IAt=     7 ISR=     1 T=0 IP=      2 IndIP=     26 IndIPD=      1 C=  2.678389D-01  0.000000D+00                             NZ=T
 IS=     9 IAt=     7 ISR=     1 T=0 IP=      3 IndIP=     27 IndIPD=      2 C=  8.347367D-02  0.000000D+00                             NZ=T
 IS=    10 IAt=     8 ISR=     1 T=0 IP=      1 IndIP=     28 IndIPD=      0 C=  2.769344D-01  0.000000D+00                             NZ=T
 IS=    10 IAt=     8 ISR=     1 T=0 IP=      2 IndIP=     29 IndIPD=      1 C=  2.678389D-01  0.000000D+00                             NZ=T
 IS=    10 IAt=     8 ISR=     1 T=0 IP=      3 IndIP=     30 IndIPD=      2 C=  8.347367D-02  0.000000D+00                             NZ=T
 IExCor=  404 DFT=T Ex=B Corr=P86 ExCW=0 ScaHFX=  0.000000
 ScaDFX=  1.000000  1.000000  1.000000  1.000000 ScalE2=  1.000000  1.000000
 IRadAn=      5 IRanWt=     -1 IRanGd=            0 ICorTp=0 IEmpDi=  4
 NAtoms=    8 NActive=    8 NUniq=    8 SFac= 1.00D+00 NAtFMM=   60 NAOKFM=F Big=F
 Integral buffers will be    131072 words long.
 Raffenetti 2 integral format.
 Two-electron integral symmetry is turned off.
 Background charge distribution read from rwf.
 PtFMM for NChg=        25 BoxLen=    40.00 Levels= 0 LMax=20 SMax=    10.4 ICnFMM=     1:
 Self energy of the charges =        -0.6750123659 a.u.
 MM   energy of the charges =         0.0000000000 a.u.
 Nuclei-charges interaction =        -1.4696237536 a.u.
 Nuclear repulsion after external point charges =       47.1592769132 Hartrees.
 Leave Link  301 at Mon Mar 11 07:11:53 2024, MaxMem=   131072000 cpu:               0.1 elap:               0.1
 (Enter /trinity/shared/software/gaussian/g16_A03/g16/l302.exe)
 NPDir=0 NMtPBC=     1 NCelOv=     1 NCel=       1 NClECP=     1 NCelD=      1
         NCelK=      1 NCelE2=     1 NClLst=     1 CellRange=     0.0.
 One-electron integrals computed using PRISM.
 Entering OneElI...
 Calculate overlap and kinetic energy integrals
    NBasis =  16  MinDer = 0  MaxDer = 0
 Requested accuracy = 0.1000D-12
 PrmmSu-InSpLW:  IPartL=    0 NPrtUS=    1 NPrtUL=    1 DoSpLW=F IThBeg=    0 IThEnd=    0 NThAct=    1.
 PrsmSu:  NPrtUS=   1 ThrOK=F IAlg=1 NPAlg=1 LenDen=           0 ISkipM=0 DoSpLW=F IThBeg=    0 IThEnd=    0.
 Prism:   IPart=     0 DynPar=F LinDyn=F Incr=           1.
 PRISM was handed   131062193 working-precision words and    55 shell-pairs
 IPart=  0 NShTot=          55 NBatch=           5 AvBLen=        11.0
 PrSmSu:  NxtVal=              2.
 *** Overlap *** 
                1             2             3             4             5 
      1  0.100000D+01
      2  0.235038D+00  0.100000D+01
      3  0.000000D+00  0.000000D+00  0.100000D+01
      4  0.000000D+00  0.000000D+00  0.000000D+00  0.100000D+01
      5  0.000000D+00  0.000000D+00  0.000000D+00  0.000000D+00  0.100000D+01
      6  0.583889D-01  0.494781D+00 -0.722185D-01 -0.326480D+00 -0.285450D+00
      7  0.556200D-01  0.482061D+00 -0.278986D+00  0.317227D+00 -0.926135D-01
      8  0.602094D-01  0.502906D+00  0.415521D+00  0.154074D+00 -0.282688D-01
      9  0.000000D+00  0.246205D-01 -0.835570D-02 -0.129524D-01  0.390939D-01
     10  0.256379D-01  0.294213D+00 -0.612692D-01 -0.949748D-01  0.286661D+00
     11  0.848042D-02  0.706469D-01  0.142194D+00 -0.288557D-01  0.870949D-01
     12  0.131457D-01  0.109511D+00 -0.288557D-01  0.116079D+00  0.135008D+00
     13 -0.396775D-01 -0.330536D+00  0.870949D-01  0.135008D+00 -0.246683D+00
     14  0.598163D-02  0.986502D-01  0.202602D-01 -0.719959D-01  0.908767D-01
     15  0.567048D-02  0.945732D-01 -0.700468D-01 -0.452425D-01  0.768736D-01
     16  0.490505D-02  0.843796D-01 -0.783742D-02  0.164623D-01  0.100951D+00
                6             7             8             9            10 
      6  0.100000D+01
      7  0.206672D+00  0.100000D+01
      8  0.201720D+00  0.203003D+00  0.100000D+01
      9  0.729798D-02  0.762640D-02  0.734498D-02  0.100000D+01
     10  0.120618D+00  0.124542D+00  0.121182D+00  0.248362D+00  0.100000D+01
     11  0.911598D-02 -0.290611D-01  0.913965D-01  0.000000D+00  0.000000D+00
     12 -0.225553D-01  0.928776D-01  0.593399D-01  0.000000D+00  0.000000D+00
     13 -0.149246D+00 -0.121215D+00 -0.105718D+00  0.000000D+00  0.000000D+00
     14  0.688409D-01  0.248435D-01  0.670001D-01  0.718419D-01  0.526495D+00
     15  0.699981D-01  0.691199D-01  0.240143D-01  0.709202D-01  0.523222D+00
     16  0.212679D-01  0.623870D-01  0.607196D-01  0.661008D-01  0.505537D+00
               11            12            13            14            15 
     11  0.100000D+01
     12  0.000000D+00  0.100000D+01
     13  0.000000D+00  0.000000D+00  0.100000D+01
     14  0.301051D+00 -0.371092D+00  0.957490D-01  0.100000D+01
     15 -0.454409D+00 -0.170805D+00  0.127668D-01  0.201176D+00  0.100000D+01
     16  0.576842D-01  0.350497D+00  0.316689D+00  0.184671D+00  0.183440D+00
               16 
     16  0.100000D+01
 *** Kinetic Energy *** 
                1             2             3             4             5 
      1  0.219908D+02
      2 -0.128416D+00  0.606994D+00
      3  0.000000D+00  0.000000D+00  0.189936D+01
      4  0.000000D+00  0.000000D+00  0.000000D+00  0.189936D+01
      5  0.000000D+00  0.000000D+00  0.000000D+00  0.000000D+00  0.189936D+01
      6 -0.619121D-02  0.122860D+00 -0.466384D-01 -0.210839D+00 -0.184343D+00
      7 -0.727289D-02  0.114691D+00 -0.173894D+00  0.197730D+00 -0.577267D-01
      8 -0.540752D-02  0.128206D+00  0.274343D+00  0.101726D+00 -0.186641D-01
      9 -0.214376D-05 -0.114248D-01  0.265497D-02  0.411553D-02 -0.124218D-01
     10 -0.666681D-02  0.226355D-01 -0.207937D-01 -0.322328D-01  0.972878D-01
     11 -0.203793D-02  0.235432D-01  0.349954D-01 -0.181760D-01  0.548605D-01
     12 -0.315904D-02  0.364949D-01 -0.181760D-01  0.185459D-01  0.850405D-01
     13  0.953489D-02 -0.110152D+00  0.548605D-01  0.850405D-01 -0.209956D+00
     14 -0.210256D-02 -0.167316D-01 -0.214859D-03  0.763515D-03 -0.963747D-03
     15 -0.205741D-02 -0.167736D-01  0.132550D-02  0.856125D-03 -0.145468D-02
     16 -0.194379D-02 -0.167074D-01  0.320086D-03 -0.672333D-03 -0.412292D-02
                6             7             8             9            10 
      6  0.760032D+00
      7 -0.254606D-03  0.760032D+00
      8 -0.105551D-02 -0.850901D-03  0.760032D+00
      9 -0.263564D-02 -0.268717D-02 -0.264301D-02  0.158911D+02
     10 -0.138931D-01 -0.136194D-01 -0.138554D-01 -0.858900D-01  0.472250D+00
     11  0.323648D-03 -0.121113D-02  0.332672D-02  0.000000D+00  0.000000D+00
     12 -0.800789D-03  0.387071D-02  0.215990D-02  0.000000D+00  0.000000D+00
     13 -0.529872D-02 -0.505168D-02 -0.384802D-02  0.000000D+00  0.000000D+00
     14 -0.114086D-01 -0.791683D-02 -0.113754D-01 -0.752893D-02  0.127976D+00
     15 -0.114259D-01 -0.114131D-01 -0.777230D-02 -0.787412D-02  0.125972D+00
     16 -0.726027D-02 -0.112600D-01 -0.112064D-01 -0.948777D-02  0.115390D+00
               11            12            13            14            15 
     11  0.147773D+01
     12  0.000000D+00  0.147773D+01
     13  0.000000D+00  0.000000D+00  0.147773D+01
     14  0.185379D+00 -0.228508D+00  0.589595D-01  0.760032D+00
     15 -0.277429D+00 -0.104281D+00  0.779449D-02 -0.114173D-02  0.760032D+00
     16  0.335905D-01  0.204100D+00  0.184414D+00 -0.358331D-02 -0.375214D-02
               16 
     16  0.760032D+00
 Entering OneElI...
 Calculate potential energy integrals
    NBasis =  16  MinDer = 0  MaxDer = 0
 Requested accuracy = 0.1000D-12
 PrmmSu-InSpLW:  IPartL=    0 NPrtUS=    1 NPrtUL=    1 DoSpLW=F IThBeg=    0 IThEnd=    0 NThAct=    1.
 PrsmSu:  NPrtUS=   1 ThrOK=F IAlg=1 NPAlg=1 LenDen=           0 ISkipM=0 DoSpLW=F IThBeg=    0 IThEnd=    0.
 Prism:   IPart=     0 DynPar=F LinDyn=F Incr=          13.
 PRISM was handed   131061379 working-precision words and    55 shell-pairs
 IPart=  0 NShTot=        1375 NBatch=          55 AvBLen=        25.0
 PrSmSu:  NxtVal=             14.
 ***** Potential Energy ***** 
                1             2             3             4             5 
      1  0.506289D+02
      2  0.647720D+01  0.112701D+02
      3 -0.796973D-02 -0.106082D+00  0.111481D+02
      4 -0.129467D-01 -0.168810D+00  0.234520D-01  0.111505D+02
      5  0.378122D-01  0.494673D+00 -0.437149D-01 -0.662771D-01  0.113414D+02
      6  0.164420D+01  0.470056D+01 -0.671953D+00 -0.291666D+01 -0.231859D+01
      7  0.156511D+01  0.456004D+01 -0.246459D+01  0.269647D+01 -0.628992D+00
      8  0.169626D+01  0.478913D+01  0.360802D+01  0.129054D+01 -0.657725D-01
      9  0.000000D+00  0.539245D+00 -0.183942D+00 -0.285198D+00  0.860665D+00
     10  0.721299D+00  0.308002D+01 -0.645384D+00 -0.100244D+01  0.302001D+01
     11  0.238659D+00  0.763823D+00  0.126997D+01 -0.298706D+00  0.902351D+00
     12  0.369943D+00  0.118066D+01 -0.297456D+00  0.100016D+01  0.139357D+01
     13 -0.111662D+01 -0.357130D+01  0.901692D+00  0.139839D+01 -0.275353D+01
     14  0.167772D+00  0.942757D+00  0.135812D+00 -0.633022D+00  0.878448D+00
     15  0.158994D+00  0.903281D+00 -0.598652D+00 -0.413085D+00  0.758643D+00
     16  0.137397D+00  0.803735D+00 -0.890464D-01  0.927733D-01  0.939438D+00
                6             7             8             9            10 
      6  0.753717D+01
      7  0.169061D+01  0.746104D+01
      8  0.167071D+01  0.166902D+01  0.757455D+01
      9  0.160195D+00  0.167421D+00  0.161226D+00  0.384304D+02
     10  0.110992D+01  0.113734D+01  0.111765D+01  0.537881D+01  0.990188D+01
     11  0.115656D+00 -0.181978D+00  0.762651D+00  0.128858D-01  0.152272D+00
     12 -0.109269D+00  0.791497D+00  0.534508D+00  0.170199D-01  0.208359D+00
     13 -0.137634D+01 -0.115229D+01 -0.103937D+01 -0.578228D-01 -0.679630D+00
     14  0.537868D+00  0.228966D+00  0.526645D+00  0.158158D+01  0.453756D+01
     15  0.542220D+00  0.535203D+00  0.221816D+00  0.156050D+01  0.448773D+01
     16  0.195819D+00  0.480723D+00  0.472011D+00  0.145201D+01  0.429600D+01
               11            12            13            14            15 
     11  0.974330D+01
     12  0.264550D-01  0.976903D+01
     13 -0.688836D-01 -0.104065D+00  0.100623D+02
     14  0.247670D+01 -0.291476D+01  0.533483D+00  0.725938D+01
     15 -0.358865D+01 -0.129889D+01 -0.131370D+00  0.157247D+01  0.719957D+01
     16  0.510536D+00  0.285431D+01  0.230187D+01  0.143972D+01  0.142273D+01
               16 
     16  0.712072D+01
 ****** Core Hamiltonian ****** 
                1             2             3             4             5 
      1 -0.286381D+02
      2 -0.660561D+01 -0.106631D+02
      3  0.796973D-02  0.106082D+00 -0.924873D+01
      4  0.129467D-01  0.168810D+00 -0.234520D-01 -0.925119D+01
      5 -0.378122D-01 -0.494673D+00  0.437149D-01  0.662771D-01 -0.944202D+01
      6 -0.165039D+01 -0.457770D+01  0.625315D+00  0.270582D+01  0.213425D+01
      7 -0.157238D+01 -0.444535D+01  0.229069D+01 -0.249874D+01  0.571265D+00
      8 -0.170167D+01 -0.466092D+01 -0.333367D+01 -0.118881D+01  0.471084D-01
      9 -0.259201D-05 -0.550669D+00  0.186597D+00  0.289314D+00 -0.873087D+00
     10 -0.727966D+00 -0.305738D+01  0.624590D+00  0.970212D+00 -0.292272D+01
     11 -0.240697D+00 -0.740280D+00 -0.123497D+01  0.280529D+00 -0.847491D+00
     12 -0.373102D+00 -0.114416D+01  0.279280D+00 -0.981616D+00 -0.130852D+01
     13  0.112615D+01  0.346115D+01 -0.846832D+00 -0.131335D+01  0.254357D+01
     14 -0.169875D+00 -0.959489D+00 -0.136026D+00  0.633786D+00 -0.879411D+00
     15 -0.161051D+00 -0.920054D+00  0.599978D+00  0.413942D+00 -0.760098D+00
     16 -0.139341D+00 -0.820442D+00  0.893665D-01 -0.934456D-01 -0.943561D+00
                6             7             8             9            10 
      6 -0.677714D+01
      7 -0.169087D+01 -0.670101D+01
      8 -0.167177D+01 -0.166987D+01 -0.681452D+01
      9 -0.162831D+00 -0.170108D+00 -0.163869D+00 -0.225392D+02
     10 -0.112382D+01 -0.115096D+01 -0.113150D+01 -0.546470D+01 -0.942963D+01
     11 -0.115333D+00  0.180767D+00 -0.759325D+00 -0.128858D-01 -0.152272D+00
     12  0.108468D+00 -0.787626D+00 -0.532348D+00 -0.170199D-01 -0.208359D+00
     13  0.137104D+01  0.114723D+01  0.103552D+01  0.578228D-01  0.679630D+00
     14 -0.549277D+00 -0.236883D+00 -0.538021D+00 -0.158911D+01 -0.440958D+01
     15 -0.553646D+00 -0.546616D+00 -0.229588D+00 -0.156838D+01 -0.436176D+01
     16 -0.203079D+00 -0.491983D+00 -0.483217D+00 -0.146150D+01 -0.418061D+01
               11            12            13            14            15 
     11 -0.826557D+01
     12 -0.264550D-01 -0.829131D+01
     13  0.688836D-01  0.104065D+00 -0.858452D+01
     14 -0.229132D+01  0.268625D+01 -0.474523D+00 -0.649935D+01
     15  0.331122D+01  0.119461D+01  0.139164D+00 -0.157361D+01 -0.643954D+01
     16 -0.476946D+00 -0.265021D+01 -0.211745D+01 -0.144330D+01 -0.142648D+01
               16 
     16 -0.636068D+01
 SVDSVc IOpt=   1 NormSV=T IR=1
 SVDSVc V= 2.57D+00 2.01D+00 1.64D+00 1.63D+00 1.37D+00 1.26D+00 1.24D+00 9.83D-01 9.63D-01 4.33D-01
 SVDSVc V= 3.93D-01 3.77D-01 3.34D-01 3.28D-01 2.66D-01 1.96D-01
 TstOVc:  Largest diagonal error= 1.78D-15 IB=1 I=    6.
 TstOVc:  Largest same sym error= 2.22D-15 IB=1 I=   14 J=   13.
 Orthogonalized basis functions: 
                 1             2             3             4             5 
      1   0.726922D-01  0.947276D-01  0.171490D-02  0.354139D-02  0.334888D-01
      2   0.289989D+00  0.260088D+00  0.357627D-02  0.589188D-02  0.439441D-01
      3  -0.143033D-01  0.302976D-01  0.280097D+00  0.291327D+00 -0.133011D+00
      4  -0.195302D-01  0.590796D-01  0.258463D+00 -0.274741D+00 -0.136999D+00
      5   0.519932D-01 -0.149365D+00  0.145469D+00 -0.350300D-01  0.566104D+00
      6   0.185663D+00  0.198564D+00 -0.218367D+00  0.123128D+00 -0.155578D+00
      7   0.183261D+00  0.200490D+00 -0.119440D-01 -0.254198D+00 -0.799474D-01
      8   0.183389D+00  0.206803D+00  0.229592D+00  0.122837D+00 -0.128630D+00
      9   0.796239D-01 -0.104351D+00  0.666559D-02 -0.457653D-02  0.615464D-01
     10   0.298406D+00 -0.258372D+00  0.154497D-01 -0.107897D-01  0.728860D-01
     11   0.125164D-01  0.439448D-01  0.305799D+00  0.333705D+00  0.123236D+00
     12   0.136977D-01  0.864060D-01  0.296425D+00 -0.328672D+00  0.143911D+00
     13  -0.713995D-01 -0.206651D+00  0.175623D+00 -0.511620D-01 -0.502103D+00
     14   0.182814D+00 -0.221247D+00  0.997654D-02  0.294603D+00 -0.578178D-01
     15   0.181253D+00 -0.219168D+00 -0.248762D+00 -0.142247D+00 -0.942580D-01
     16   0.167413D+00 -0.211435D+00  0.261220D+00 -0.167040D+00 -0.121991D+00
                 6             7             8             9            10 
      1  -0.289649D-02 -0.150089D-01  0.887018D+00  0.413276D+00 -0.503778D-01
      2  -0.381543D-02 -0.127626D-01  0.389367D-01 -0.125879D-01  0.137328D+00
      3   0.326591D+00 -0.359707D+00 -0.202180D-01  0.192555D-01 -0.775296D-01
      4   0.348748D+00  0.371320D+00 -0.154336D-01  0.495928D-01 -0.376814D+00
      5   0.152180D+00 -0.161102D-01  0.621878D-01 -0.134098D+00  0.874128D+00
      6  -0.310310D+00 -0.164519D+00 -0.111961D+00 -0.450515D-01  0.212105D+00
      7   0.763349D-02  0.377642D+00 -0.102774D+00 -0.429251D-01  0.392141D+00
      8   0.309094D+00 -0.164244D+00 -0.111678D+00 -0.461466D-01  0.200866D+00
      9  -0.567948D-02 -0.136055D-01 -0.402730D+00  0.895507D+00  0.786701D-01
     10  -0.837560D-02 -0.143391D-01 -0.240178D-01 -0.116335D-01 -0.193634D+00
     11  -0.287857D+00  0.301987D+00 -0.246135D-01 -0.871558D-02 -0.169642D+00
     12  -0.278337D+00 -0.291238D+00 -0.470694D-01 -0.210365D-01 -0.343272D+00
     13  -0.132764D+00  0.223836D-01  0.119229D+00  0.491609D-01  0.894262D+00
     14  -0.434567D-03  0.335090D+00  0.538089D-01 -0.101520D+00 -0.256325D+00
     15   0.294879D+00 -0.162090D+00  0.531546D-01 -0.107195D+00 -0.199145D+00
     16  -0.287095D+00 -0.152405D+00  0.581541D-01 -0.115990D+00 -0.197185D+00
                11            12            13            14            15 
      1   0.193364D-01 -0.157893D-01 -0.176987D-02 -0.102165D-01 -0.299202D+00
      2  -0.574050D-01  0.487070D-01  0.301641D-02  0.384129D-01  0.141929D+01
      3   0.533860D+00 -0.796019D+00  0.131718D+00 -0.378900D+00  0.100418D+00
      4  -0.749983D+00 -0.426515D+00  0.392849D+00 -0.136807D-02  0.708883D-01
      5  -0.281531D+00 -0.253228D+00  0.181350D+00 -0.802561D-01 -0.218786D+00
      6  -0.705816D+00 -0.672418D+00  0.333943D+00 -0.112568D+00 -0.588475D+00
      7   0.930712D+00 -0.273959D+00 -0.110958D+00 -0.189650D+00 -0.519517D+00
      8  -0.259909D+00  0.925904D+00 -0.206999D+00  0.252162D+00 -0.659907D+00
      9   0.775781D-03  0.816053D-02  0.328174D-01  0.480094D-03 -0.805365D-01
     10  -0.388168D-02 -0.221005D-01 -0.113029D+00 -0.508484D-04  0.406426D+00
     11   0.112406D+00 -0.280231D+00 -0.850966D-01  0.106080D+01 -0.103421D+00
     12  -0.149637D+00 -0.229484D+00 -0.985031D+00 -0.206048D+00 -0.168946D+00
     13  -0.189063D+00 -0.864464D-01 -0.410395D+00  0.157769D+00  0.357197D+00
     14  -0.200944D+00  0.533157D-01 -0.546239D+00 -0.857686D+00 -0.265689D+00
     15   0.752797D-01 -0.382492D+00 -0.332506D+00  0.924666D+00 -0.281736D+00
     16   0.252931D+00  0.308981D+00  0.102845D+01 -0.733138D-01 -0.216628D+00
                16 
      1   0.130725D+00
      2  -0.699121D+00
      3   0.496601D-01
      4   0.879571D-01
      5  -0.227059D+00
      6   0.186969D+00
      7   0.167172D+00
      8   0.183810D+00
      9  -0.314926D+00
     10   0.169393D+01
     11  -0.229949D-01
     12  -0.157898D+00
     13   0.428905D-01
     14  -0.755928D+00
     15  -0.724757D+00
     16  -0.578943D+00
 NBasis=    16 RedAO= T EigKep=  1.96D-01  NBF=    16
 NBsUse=    16 1.00D-06 EigRej= -1.00D+00 NBFU=    16
 Precomputing XC quadrature grid using
 IXCGrd= 4 IRadAn=           5 IRanWt=          -1 IRanGd=           0 AccXCQ= 0.00D+00.
 SetAtRh:  ITypeU=  23 NETotI=       0 ICharg=  1 NETot=       0.
 StAtR1:  I=    1 I1=    1 IA=  7 C=   7.0 OKShel=TTT
                                                  SSP
                                                  223
 StAtR1:  I=    2 I1=    2 IA=  1 C=   1.0 OKShel=T
                                                  S
                                                  1
 StAtR1:  I=    3 I1=    3 IA=  1 C=   1.0 OKShel=T
                                                  S
                                                  1
 StAtR1:  I=    4 I1=    4 IA=  1 C=   1.0 OKShel=T
                                                  S
                                                  1
 StAtR1:  I=    5 I1=    5 IA=  6 C=   6.0 OKShel=TTT
                                                  SSP
                                                  222
 StAtR1:  I=    6 I1=    6 IA=  1 C=   1.0 OKShel=T
                                                  S
                                                  1
 StAtR1:  I=    7 I1=    7 IA=  1 C=   1.0 OKShel=T
                                                  S
                                                  1
 StAtR1:  I=    8 I1=    8 IA=  1 C=   1.0 OKShel=T
                                                  S
                                                  1
          I=    1 IA=  7 I1=    1 NAtG= 0 NE=   7.000 C=   0.000 Err=-7.00D+00
          I=    2 IA=  1 I1=    2 NAtG= 0 NE=   1.000 C=   0.000 Err=-1.00D+00
          I=    3 IA=  1 I1=    3 NAtG= 0 NE=   1.000 C=   0.000 Err=-1.00D+00
          I=    4 IA=  1 I1=    4 NAtG= 0 NE=   1.000 C=   0.000 Err=-1.00D+00
          I=    5 IA=  6 I1=    5 NAtG= 0 NE=   6.000 C=   0.000 Err=-6.00D+00
          I=    6 IA=  1 I1=    6 NAtG= 0 NE=   1.000 C=   0.000 Err=-1.00D+00
          I=    7 IA=  1 I1=    7 NAtG= 0 NE=   1.000 C=   0.000 Err=-1.00D+00
          I=    8 IA=  1 I1=    8 NAtG= 0 NE=   1.000 C=   0.000 Err=-1.00D+00
 Generated NRdTot=       0 NPtTot=           0 NUsed=           0 NTot=          32
 NSgBfM=    16    16    16    16    16 MxSgAt=     8 MxSgA2=     8.
 IGWInf( 1) =          32 (NGWInf)
 IGWInf( 2) =           8 (NAtomA)
 IGWInf( 3) =           5 (IRadAn)
 IGWInf( 4) =          -1 (IRanWt)
 IGWInf( 5) =           0 (IRanGd)
 IGWInf( 6) =           2 (IRType)
 IGWInf( 7) =           0 (NRdTot)
 IGWInf( 8) =           0 (NGWTot)
 IGWInf( 9) =      173132 (LGWBtD)
 IGWInf(10) =           0 (NAtBtD)
 IGWInf(11) =           0 (NIRBtD)
 IGWInf(12) =           0 (NRRBtD)
 IGWInf(13) =           1 (NClRep)
 IGWInf(14) =           0 (ICntr3)
 IGWInf(15) =           0 (IPFlag)
 IGWInf(16) =           0 (IGet)  
 IGWInf(17) =           0         
 IGWInf(18) =          16         
 IGWInf(19) =          16         
 IGWInf(20) =          16         
 IGWInf(21) =          16         
 IGWInf(22) =          16         
 IGWInf(23) =           8         
 IGWInf(24) =           8         
 IGWInf(25) =           0         
 IGWInf(26) =           0         
 IGWInf(27) =           0         
 IGWInf(28) =           0         
 IGWInf(29) =           0         
 IGWInf(30) =           0         
 IGWInf(31) =           0         
 IGWInf(32) =           0         
 IAtBtD: 
              1            2            3            4            5
              6            7            8
 Leave Link  302 at Mon Mar 11 07:11:53 2024, MaxMem=   131072000 cpu:               0.2 elap:               0.2
 (Enter /trinity/shared/software/gaussian/g16_A03/g16/l303.exe)
 DipDrv:  MaxL=1.
 DipPsm:  J= 1 NJ= 4 MaxL=1 MMat= 4 MaxMat= 4.
 DipInt: DoE/N= T F RetVal/Mat= F T Init=T NMatP=  4 IDeriv=0 Min/MaxMlt=  0  1
 Entering OneElI...
 Multipole integrals L=0 to 1 MinM= 0 MaxM= 3.
 Requested accuracy = 0.1000D-12
 PrmmSu-InSpLW:  IPartL=    0 NPrtUS=    1 NPrtUL=    1 DoSpLW=F IThBeg=    0 IThEnd=    0 NThAct=    1.
 PrsmSu:  NPrtUS=   1 ThrOK=F IAlg=1 NPAlg=1 LenDen=           0 ISkipM=0 DoSpLW=F IThBeg=    0 IThEnd=    0.
 Prism:   IPart=     0 DynPar=F LinDyn=F Incr=           1.
 PRISM was handed   131062633 working-precision words and    55 shell-pairs
 IPart=  0 NShTot=          55 NBatch=           6 AvBLen=         9.2
 PrSmSu:  NxtVal=              2.
 Multipole matrices IBuc=  518 IX=    1 IJ=           1:
                1             2             3             4             5 
      1  0.904548D+02
      2  0.212603D+02  0.904548D+02
      3  0.579343D-01  0.739815D+00  0.904548D+02
      4  0.000000D+00  0.000000D+00  0.000000D+00  0.904548D+02
      5  0.000000D+00  0.000000D+00  0.000000D+00  0.000000D+00  0.904548D+02
      6  0.528063D+01  0.446808D+02 -0.618236D+01 -0.294827D+02 -0.257776D+02
      7  0.502765D+01  0.433147D+02 -0.247378D+02  0.285044D+02 -0.832178D+01
      8  0.545163D+01  0.459166D+02  0.382818D+02  0.140668D+02 -0.258092D+01
      9  0.337654D-05  0.221441D+01 -0.749920D+00 -0.116503D+01  0.351638D+01
     10  0.231855D+01  0.265418D+02 -0.532139D+01 -0.856963D+01  0.258656D+02
     11  0.768087D+00  0.656127D+01  0.128347D+02 -0.266481D+01  0.804315D+01
     12  0.118876D+01  0.987624D+01 -0.252867D+01  0.104713D+02  0.121779D+02
     13 -0.358802D+01 -0.298093D+02  0.763225D+01  0.121779D+02 -0.222504D+02
     14  0.541169D+00  0.895005D+01  0.190813D+01 -0.653200D+01  0.824501D+01
     15  0.512572D+00  0.846221D+01 -0.619994D+01 -0.404785D+01  0.687790D+01
     16  0.443647D+00  0.762214D+01 -0.647854D+00  0.148706D+01  0.911902D+01
                6             7             8             9            10 
      6  0.901406D+02
      7  0.185319D+02  0.891959D+02
      8  0.183931D+02  0.184142D+02  0.922216D+02
      9  0.656212D+00  0.685485D+00  0.660985D+00  0.899087D+02
     10  0.108580D+02  0.111547D+02  0.110298D+02  0.223299D+02  0.899087D+02
     11  0.907205D+00 -0.251364D+01  0.840443D+01  0.718555D-01  0.838744D+00
     12 -0.203039D+01  0.831910D+01  0.540016D+01  0.000000D+00  0.000000D+00
     13 -0.134349D+02 -0.108573D+02 -0.962079D+01  0.000000D+00  0.000000D+00
     14  0.623872D+01  0.223971D+01  0.614160D+01  0.646502D+01  0.476697D+02
     15  0.623754D+01  0.612664D+01  0.216490D+01  0.636766D+01  0.465381D+02
     16  0.191723D+01  0.559450D+01  0.553684D+01  0.594409D+01  0.455169D+02
               11            12            13            14            15 
     11  0.899087D+02
     12  0.000000D+00  0.899087D+02
     13  0.000000D+00  0.000000D+00  0.899087D+02
     14  0.276330D+02 -0.335929D+02  0.866763D+01  0.911096D+02
     15 -0.400512D+02 -0.151967D+02  0.113588D+01  0.180243D+02  0.880797D+02
     16  0.555820D+01  0.315564D+02  0.285126D+02  0.167369D+02  0.163475D+02
               16 
     16  0.901525D+02
 Multipole matrices IBuc=  518 IX=    2 IJ=           1:
                1             2             3             4             5 
      1  0.161790D+03
      2  0.380268D+02  0.161790D+03
      3  0.000000D+00  0.000000D+00  0.161790D+03
      4  0.579343D-01  0.739815D+00  0.000000D+00  0.161790D+03
      5  0.000000D+00  0.000000D+00  0.000000D+00  0.000000D+00  0.161790D+03
      6  0.944258D+01  0.797140D+02 -0.116353D+02 -0.522606D+02 -0.459895D+02
      7  0.900270D+01  0.783225D+02 -0.453275D+02  0.518711D+02 -0.150471D+02
      8  0.974329D+01  0.815233D+02  0.673573D+02  0.253209D+02 -0.458246D+01
      9  0.604142D-05  0.396377D+01 -0.134529D+01 -0.208372D+01  0.629424D+01
     10  0.414716D+01  0.474905D+02 -0.989146D+01 -0.151260D+02  0.462793D+02
     11  0.137172D+01  0.114004D+02  0.229509D+02 -0.460940D+01  0.140569D+02
     12  0.212754D+01  0.178620D+02 -0.469722D+01  0.187482D+02  0.219769D+02
     13 -0.641788D+01 -0.533391D+02  0.140569D+02  0.215661D+02 -0.398128D+02
     14  0.967406D+00  0.158659D+02  0.325827D+01 -0.115085D+02  0.146149D+02
     15  0.917202D+00  0.152413D+02 -0.112883D+02 -0.722385D+01  0.123885D+02
     16  0.793670D+00  0.136736D+02 -0.127006D+01  0.272783D+01  0.163592D+02
                6             7             8             9            10 
      6  0.160370D+03
      7  0.334386D+02  0.163222D+03
      8  0.325592D+02  0.330557D+02  0.162445D+03
      9  0.117441D+01  0.122804D+01  0.118252D+01  0.160944D+03
     10  0.193795D+02  0.201805D+02  0.195908D+02  0.399723D+02  0.160944D+03
     11  0.146468D+01 -0.470860D+01  0.147747D+02  0.000000D+00  0.000000D+00
     12 -0.353740D+01  0.151378D+02  0.967957D+01  0.718555D-01  0.838744D+00
     13 -0.239796D+02 -0.196397D+02 -0.170899D+02  0.000000D+00  0.000000D+00
     14  0.110088D+02  0.400830D+01  0.107839D+02  0.115553D+02  0.843252D+02
     15  0.112216D+02  0.111794D+02  0.387472D+01  0.114109D+02  0.840198D+02
     16  0.343259D+01  0.101581D+02  0.986300D+01  0.106449D+02  0.817565D+02
               11            12            13            14            15 
     11  0.160944D+03
     12  0.000000D+00  0.160944D+03
     13  0.000000D+00  0.000000D+00  0.160944D+03
     14  0.482237D+02 -0.590626D+02  0.153375D+02  0.159463D+03
     15 -0.729741D+02 -0.270518D+02  0.205024D+01  0.321599D+02  0.160256D+03
     16  0.932763D+01  0.570406D+02  0.512092D+02  0.297216D+02  0.295964D+02
               16 
     16  0.162425D+03
 Multipole matrices IBuc=  518 IX=    3 IJ=           1:
                1             2             3             4             5 
      1  0.588105D+02
      2  0.138227D+02  0.588105D+02
      3  0.000000D+00  0.000000D+00  0.588105D+02
      4  0.000000D+00  0.000000D+00  0.000000D+00  0.588105D+02
      5  0.579343D-01  0.739815D+00  0.000000D+00  0.000000D+00  0.588105D+02
      6  0.343024D+01  0.288039D+02 -0.420439D+01 -0.190069D+02 -0.162789D+02
      7  0.326990D+01  0.282540D+02 -0.163518D+02  0.185931D+02 -0.509774D+01
      8  0.354058D+01  0.295471D+02  0.244131D+02  0.905232D+01 -0.131589D+01
      9  0.224097D-05  0.150702D+01 -0.511257D+00 -0.792511D+00  0.239367D+01
     10  0.151017D+01  0.176358D+02 -0.366756D+01 -0.568517D+01  0.173664D+02
     11  0.499734D+00  0.424407D+01  0.852748D+01 -0.173125D+01  0.527326D+01
     12  0.774649D+00  0.657884D+01 -0.173125D+01  0.696067D+01  0.817420D+01
     13 -0.233691D+01 -0.196668D+02  0.518543D+01  0.803806D+01 -0.148407D+02
     14  0.352240D+00  0.592127D+01  0.121628D+01 -0.432214D+01  0.552559D+01
     15  0.333867D+00  0.566329D+01 -0.419517D+01 -0.270962D+01  0.467120D+01
     16  0.288962D+00  0.509630D+01 -0.473433D+00  0.994434D+00  0.615824D+01
                6             7             8             9            10 
      6  0.575686D+02
      7  0.119830D+02  0.583926D+02
      8  0.117259D+02  0.118841D+02  0.586903D+02
      9  0.446855D+00  0.467187D+00  0.450027D+00  0.613657D+02
     10  0.718217D+01  0.746468D+01  0.728091D+01  0.152409D+02  0.613657D+02
     11  0.543024D+00 -0.174238D+01  0.549283D+01  0.000000D+00  0.000000D+00
     12 -0.134358D+01  0.556854D+01  0.356626D+01  0.000000D+00  0.000000D+00
     13 -0.880370D+01 -0.717814D+01 -0.626657D+01  0.718555D-01  0.838744D+00
     14  0.410692D+01  0.149235D+01  0.403468D+01  0.441048D+01  0.324147D+02
     15  0.416438D+01  0.414062D+01  0.144215D+01  0.435231D+01  0.321221D+02
     16  0.127898D+01  0.377743D+01  0.368552D+01  0.406209D+01  0.313783D+02
               11            12            13            14            15 
     11  0.613657D+02
     12  0.000000D+00  0.613657D+02
     13  0.000000D+00  0.000000D+00  0.613657D+02
     14  0.185332D+02 -0.228450D+02  0.627499D+01  0.617476D+02
     15 -0.278971D+02 -0.104861D+02  0.116184D+01  0.123889D+02  0.614171D+02
     16  0.357935D+01  0.217486D+02  0.200155D+02  0.114913D+02  0.113844D+02
               16 
     16  0.627043D+02
 Fermi contact integrals: 
                 1             2             3             4             5 
      1   0.783766D+01  0.000000D+00  0.000000D+00  0.000000D+00  0.000000D+00
      2   0.260206D+00  0.789407D-01  0.747809D-01  0.816822D-01  0.229339D-01
      3   0.000000D+00 -0.221956D-01 -0.821597D-01  0.131244D+00 -0.791695D-02
      4   0.000000D+00 -0.100340D+00  0.934214D-01  0.486648D-01 -0.122722D-01
      5   0.000000D+00 -0.877302D-01 -0.272741D-01 -0.892878D-02  0.370411D-01
      6   0.723273D-01  0.628247D+00  0.168415D-01  0.162536D-01  0.688337D-02
      7   0.687588D-01  0.168415D-01  0.628247D+00  0.164052D-01  0.720071D-02
      8   0.746821D-01  0.162536D-01  0.164052D-01  0.628247D+00  0.692879D-02
      9   0.000000D+00  0.000000D+00  0.000000D+00  0.000000D+00  0.614289D+01
     10   0.314324D-01  0.602582D-02  0.639129D-02  0.607783D-02  0.215555D+00
     11   0.104010D-01  0.741770D-03 -0.241967D-02  0.746199D-02  0.000000D+00
     12   0.161228D-01 -0.183533D-02  0.773310D-02  0.484476D-02  0.000000D+00
     13  -0.486633D-01 -0.121441D-01 -0.100925D-01 -0.863129D-02  0.000000D+00
     14   0.728345D-02  0.325037D-02  0.618934D-03  0.311518D-02  0.694322D-01
     15   0.689803D-02  0.333625D-02  0.327102D-02  0.584528D-03  0.684926D-01
     16   0.595031D-02  0.475913D-03  0.278434D-02  0.266765D-02  0.636040D-01
                 6             7             8 
      1   0.000000D+00  0.000000D+00  0.000000D+00
      2   0.312343D-02  0.285165D-02  0.222521D-02
      3   0.122523D-02 -0.405676D-02 -0.402787D-03
      4  -0.435395D-02 -0.262022D-02  0.846045D-03
      5   0.549577D-02  0.445214D-02  0.518817D-02
      6   0.325037D-02  0.333625D-02  0.475913D-03
      7   0.618934D-03  0.327102D-02  0.278434D-02
      8   0.311518D-02  0.584528D-03  0.266765D-02
      9   0.130819D-05  0.113270D-05  0.000000D+00
     10   0.858891D-01  0.848153D-01  0.791805D-01
     11   0.930466D-01 -0.139049D+00  0.167205D-01
     12  -0.114694D+00 -0.522664D-01  0.101596D+00
     13   0.295934D-01  0.390665D-02  0.917962D-01
     14   0.628247D+00  0.161895D-01  0.142877D-01
     15   0.161895D-01  0.628247D+00  0.141492D-01
     16   0.142877D-01  0.141492D-01  0.628247D+00
 Leave Link  303 at Mon Mar 11 07:11:53 2024, MaxMem=   131072000 cpu:               0.0 elap:               0.1
 (Enter /trinity/shared/software/gaussian/g16_A03/g16/l401.exe)
 Initial guess from the checkpoint file:  "testopt.2.chk"
 B after Tr=     0.013165    0.016654   -0.066668
         Rot=    1.000000   -0.000025    0.000321    0.000082 Ang=  -0.04 deg.
 Guess basis will be translated and rotated to current coordinates.
 JPrj=2 DoOrth=T DoCkMO=T.
 Leave Link  401 at Mon Mar 11 07:11:53 2024, MaxMem=   131072000 cpu:               0.1 elap:               0.1
 (Enter /trinity/shared/software/gaussian/g16_A03/g16/l502.exe)
 Keep J ints in memory in canonical form, NReq=871357.
 FoFCou: FMM=F IPFlag=           0 FMFlag=           0 FMFlg1=           0
         NFxFlg=           0 DoJE=F BraDBF=F KetDBF=F FulRan=T
         wScrn=  0.000000 ICntrl=       600 IOpCl=  0 I1Cent=           0 NGrid=           0
         NMat0=    1 NMatS0=    136 NMatT0=    0 NMatD0=    1 NMtDS0=    0 NMtDT0=    0
 Symmetry not used in FoFCou.
 Two-electron integral symmetry not used.
 Closed shell SCF:
 Using DIIS extrapolation, IDIIS=  1040.
 NGot=   131072000 LenX=   131061156 LenY=   131060274
 Requested convergence on RMS density matrix=1.00D-08 within 128 cycles.
 Requested convergence on MAX density matrix=1.00D-06.
 Requested convergence on             energy=1.00D-06.
 No special actions if energy rises.

 Cycle   1  Pass 1  IDiag  1:
 E= -95.7744547767190    
 DIIS: error= 3.49D-04 at cycle   1 NSaved=   1.
 NSaved= 1 IEnMin= 1 EnMin= -95.7744547767190     IErMin= 1 ErrMin= 3.49D-04
 ErrMax= 3.49D-04  0.00D+00 EMaxC= 1.00D-01 BMatC= 5.70D-06 BMatP= 5.70D-06
 IDIUse=3 WtCom= 9.97D-01 WtEn= 3.49D-03
 Coeff-Com:  0.100D+01
 Coeff-En:   0.100D+01
 Coeff:      0.100D+01
 Gap=     0.560 Goal=   None    Shift=    0.000
 RMSDP=3.03D-04 MaxDP=1.52D-03              OVMax= 0.00D+00

 Cycle   2  Pass 1  IDiag  1:
 E= -95.7744569878331     Delta-E=       -0.000002211114 Rises=F Damp=F
 DIIS: error= 3.37D-04 at cycle   2 NSaved=   2.
 NSaved= 2 IEnMin= 2 EnMin= -95.7744569878331     IErMin= 2 ErrMin= 3.37D-04
 ErrMax= 3.37D-04  0.00D+00 EMaxC= 1.00D-01 BMatC= 3.08D-06 BMatP= 5.70D-06
 IDIUse=3 WtCom= 9.97D-01 WtEn= 3.37D-03
 Coeff-Com:  0.407D+00 0.593D+00
 Coeff-En:   0.337D+00 0.663D+00
 Coeff:      0.407D+00 0.593D+00
 Gap=     0.560 Goal=   None    Shift=    0.000
 RMSDP=1.66D-04 MaxDP=9.04D-04 DE=-2.21D-06 OVMax= 0.00D+00

 Cycle   3  Pass 1  IDiag  1:
 E= -95.7744603282192     Delta-E=       -0.000003340386 Rises=F Damp=F
 DIIS: error= 8.77D-05 at cycle   3 NSaved=   3.
 NSaved= 3 IEnMin= 3 EnMin= -95.7744603282192     IErMin= 3 ErrMin= 8.77D-05
 ErrMax= 8.77D-05  0.00D+00 EMaxC= 1.00D-01 BMatC= 2.15D-07 BMatP= 3.08D-06
 IDIUse=1 WtCom= 1.00D+00 WtEn= 0.00D+00
 Coeff-Com:  0.238D-01 0.214D+00 0.762D+00
 Coeff:      0.238D-01 0.214D+00 0.762D+00
 Gap=     0.560 Goal=   None    Shift=    0.000
 RMSDP=3.82D-05 MaxDP=2.35D-04 DE=-3.34D-06 OVMax= 0.00D+00

 Cycle   4  Pass 1  IDiag  1:
 E= -95.7744605410991     Delta-E=       -0.000000212880 Rises=F Damp=F
 DIIS: error= 3.14D-05 at cycle   4 NSaved=   4.
 NSaved= 4 IEnMin= 4 EnMin= -95.7744605410991     IErMin= 4 ErrMin= 3.14D-05
 ErrMax= 3.14D-05  0.00D+00 EMaxC= 1.00D-01 BMatC= 1.31D-08 BMatP= 2.15D-07
 IDIUse=1 WtCom= 1.00D+00 WtEn= 0.00D+00
 Coeff-Com:  0.480D-02 0.929D-01 0.375D+00 0.527D+00
 Coeff:      0.480D-02 0.929D-01 0.375D+00 0.527D+00
 Gap=     0.560 Goal=   None    Shift=    0.000
 RMSDP=9.22D-06 MaxDP=5.03D-05 DE=-2.13D-07 OVMax= 0.00D+00

 Cycle   5  Pass 1  IDiag  1:
 E= -95.7744605561617     Delta-E=       -0.000000015063 Rises=F Damp=F
 DIIS: error= 1.60D-06 at cycle   5 NSaved=   5.
 NSaved= 5 IEnMin= 5 EnMin= -95.7744605561617     IErMin= 5 ErrMin= 1.60D-06
 ErrMax= 1.60D-06  0.00D+00 EMaxC= 1.00D-01 BMatC= 7.23D-11 BMatP= 1.31D-08
 IDIUse=1 WtCom= 1.00D+00 WtEn= 0.00D+00
 Coeff-Com:  0.575D-03 0.196D-01 0.843D-01 0.148D+00 0.748D+00
 Coeff:      0.575D-03 0.196D-01 0.843D-01 0.148D+00 0.748D+00
 Gap=     0.560 Goal=   None    Shift=    0.000
 RMSDP=8.73D-07 MaxDP=5.01D-06 DE=-1.51D-08 OVMax= 0.00D+00

 Cycle   6  Pass 1  IDiag  1:
 E= -95.7744605562679     Delta-E=       -0.000000000106 Rises=F Damp=F
 DIIS: error= 7.76D-08 at cycle   6 NSaved=   6.
 NSaved= 6 IEnMin= 6 EnMin= -95.7744605562679     IErMin= 6 ErrMin= 7.76D-08
 ErrMax= 7.76D-08  0.00D+00 EMaxC= 1.00D-01 BMatC= 1.63D-13 BMatP= 7.23D-11
 IDIUse=1 WtCom= 1.00D+00 WtEn= 0.00D+00
 Coeff-Com:  0.878D-04 0.338D-02 0.147D-01 0.263D-01 0.148D+00 0.808D+00
 Coeff:      0.878D-04 0.338D-02 0.147D-01 0.263D-01 0.148D+00 0.808D+00
 Gap=     0.560 Goal=   None    Shift=    0.000
 RMSDP=5.18D-08 MaxDP=2.62D-07 DE=-1.06D-10 OVMax= 0.00D+00

 Cycle   7  Pass 1  IDiag  1:
 E= -95.7744605562683     Delta-E=       -0.000000000000 Rises=F Damp=F
 DIIS: error= 5.28D-09 at cycle   7 NSaved=   7.
 NSaved= 7 IEnMin= 7 EnMin= -95.7744605562683     IErMin= 7 ErrMin= 5.28D-09
 ErrMax= 5.28D-09  0.00D+00 EMaxC= 1.00D-01 BMatC= 9.06D-16 BMatP= 1.63D-13
 IDIUse=1 WtCom= 1.00D+00 WtEn= 0.00D+00
 Coeff-Com:  0.197D-05 0.950D-04 0.414D-03 0.764D-03 0.566D-02 0.861D-01
 Coeff-Com:  0.907D+00
 Coeff:      0.197D-05 0.950D-04 0.414D-03 0.764D-03 0.566D-02 0.861D-01
 Coeff:      0.907D+00
 Gap=     0.560 Goal=   None    Shift=    0.000
 RMSDP=4.00D-09 MaxDP=2.86D-08 DE=-3.69D-13 OVMax= 0.00D+00

 SCF Done:  E(RB-P86) =  -95.7744605563     A.U. after    7 cycles
            NFock=  7  Conv=0.40D-08     -V/T= 2.0311
 KE= 9.288439079907D+01 PE=-3.101331157949D+02 EE= 7.431498752637D+01
 Leave Link  502 at Mon Mar 11 07:11:56 2024, MaxMem=   131072000 cpu:               2.5 elap:               2.5
 (Enter /trinity/shared/software/gaussian/g16_A03/g16/l601.exe)
 Copying SCF densities to generalized density rwf, IOpCl= 0 IROHF=0.

 **********************************************************************

            Population analysis using the SCF density.

 **********************************************************************

 Alpha  occ. eigenvalues --  -14.23051  -9.98393  -1.10677  -0.81831  -0.72048
 Alpha  occ. eigenvalues --   -0.70132  -0.60568  -0.53050  -0.51180
 Alpha virt. eigenvalues --    0.04858   0.07190   0.08321   0.09915   0.22413
 Alpha virt. eigenvalues --    0.26889   0.32603
     Molecular Orbital Coefficients:
                           1         2         3         4         5
                           O         O         O         O         O
     Eigenvalues --   -14.23051  -9.98393  -1.10677  -0.81831  -0.72048
   1 1   N  1S          0.99184   0.00085  -0.22663   0.05538   0.00001
   2        2S          0.04077  -0.00727   0.76839  -0.22279  -0.00162
   3        2PX         0.00006   0.00115   0.00373  -0.07734   0.51183
   4        2PY        -0.00000   0.00184  -0.00800  -0.10055   0.34338
   5        2PZ        -0.00007  -0.00549   0.00459   0.33169   0.21452
   6 2   H  1S         -0.00808  -0.00033   0.10220  -0.10523  -0.27822
   7 3   H  1S         -0.00775  -0.00045   0.08706  -0.08158  -0.06650
   8 4   H  1S         -0.00827  -0.00038   0.10441  -0.10560   0.34016
   9 5   C  1S          0.00061   0.98991  -0.07485  -0.20693   0.00003
  10        2S         -0.00675   0.04927   0.16490   0.59541   0.00007
  11        2PX        -0.00111   0.00011   0.01900   0.02051   0.13135
  12        2PY        -0.00156  -0.00073   0.02120  -0.00356   0.09159
  13        2PZ         0.00504  -0.00033  -0.07479  -0.02727   0.06284
  14 6   H  1S          0.00064  -0.01076   0.02151   0.15176   0.01174
  15 7   H  1S          0.00064  -0.01055   0.01956   0.13557  -0.06689
  16 8   H  1S          0.00054  -0.01008   0.02157   0.15747   0.06456
                           6         7         8         9        10
                           O         O         O         O         V
     Eigenvalues --    -0.70132  -0.60568  -0.53050  -0.51180   0.04858
   1 1   N  1S         -0.00589  -0.03079  -0.00344  -0.00105  -0.20041
   2        2S          0.02757   0.14277   0.01688   0.00628   1.35225
   3        2PX        -0.39820  -0.08140  -0.05460  -0.19785  -0.00820
   4        2PY         0.51196  -0.19444  -0.21809   0.08706  -0.20044
   5        2PZ         0.10962   0.55610  -0.02278  -0.02426   0.07608
   6 2   H  1S         -0.22908  -0.10824   0.18036  -0.01588  -0.72514
   7 3   H  1S          0.34490  -0.10337  -0.09506   0.17445  -0.39044
   8 4   H  1S         -0.11609  -0.08824  -0.10870  -0.15028  -0.53115
   9 5   C  1S          0.00483   0.05667   0.00770   0.00723   0.04993
  10        2S         -0.01516  -0.16901  -0.02653  -0.02528  -0.25199
  11        2PX        -0.10714   0.07892   0.17798   0.57429  -0.13753
  12        2PY         0.15826   0.10868   0.52400  -0.18578  -0.29516
  13        2PZ         0.01136  -0.42913   0.17089   0.05341   0.62093
  14 6   H  1S         -0.09746  -0.15002  -0.20490   0.39110  -0.10229
  15 7   H  1S          0.01625  -0.14297  -0.25182  -0.35925  -0.06753
  16 8   H  1S          0.05267  -0.22424   0.44702  -0.04170   0.03511
                          11        12        13        14        15
                           V         V         V         V         V
     Eigenvalues --     0.07190   0.08321   0.09915   0.22413   0.26889
   1 1   N  1S          0.04514  -0.01331   0.01289  -0.01255   0.00446
   2        2S         -0.33695   0.06085  -0.10745   0.08246  -0.03438
   3        2PX         0.15009  -0.26956  -0.91508   0.11281  -0.30124
   4        2PY        -0.65352   0.56160  -0.27308   0.34584   0.05001
   5        2PZ         0.64422   0.72759  -0.08502   0.13654  -0.05100
   6 2   H  1S          0.05336   0.91374  -0.39789   0.23660  -0.02301
   7 3   H  1S          0.95527  -0.52752  -0.40230  -0.15206  -0.14411
   8 4   H  1S          0.27079   0.08340   1.09207  -0.22068   0.20232
   9 5   C  1S          0.08156   0.04902   0.02349   0.09810  -0.01339
  10        2S         -0.46312  -0.27298  -0.13816  -0.62745   0.09465
  11        2PX        -0.07715  -0.11226  -0.20430  -0.11156   1.05989
  12        2PY        -0.30608  -0.02391  -0.14921  -0.81077  -0.30072
  13        2PZ         0.47410   0.56496  -0.00267  -0.58300   0.13279
  14 6   H  1S         -0.10942   0.12631   0.12183  -0.13823  -0.95951
  15 7   H  1S          0.03960   0.01677  -0.26347  -0.07558   0.85895
  16 8   H  1S          0.17594  -0.23434   0.23371   1.20945  -0.03728
                          16
                           V
     Eigenvalues --     0.32603
   1 1   N  1S          0.03466
   2        2S         -0.23697
   3        2PX         0.07561
   4        2PY         0.13463
   5        2PZ        -0.04757
   6 2   H  1S          0.15891
   7 3   H  1S          0.06599
   8 4   H  1S          0.02450
   9 5   C  1S         -0.21173
  10        2S          1.43502
  11        2PX        -0.21989
  12        2PY        -0.58488
  13        2PZ         0.14179
  14 6   H  1S         -0.91615
  15 7   H  1S         -1.00271
  16 8   H  1S         -0.24432
          Condensed to atoms (all electrons):
               1          2          3          4          5          6
     1  N    6.136942   0.334404   0.325903   0.336766   0.293579  -0.024129
     2  H    0.334404   0.391934  -0.021366  -0.021730  -0.023271  -0.002980
     3  H    0.325903  -0.021366   0.375651  -0.020971  -0.023467   0.002897
     4  H    0.336766  -0.021730  -0.020971   0.386994  -0.023807  -0.002913
     5  C    0.293579  -0.023271  -0.023467  -0.023807   4.753191   0.394867
     6  H   -0.024129  -0.002980   0.002897  -0.002913   0.394867   0.501390
     7  H   -0.021161  -0.003026  -0.003215   0.002741   0.395117  -0.019600
     8  H   -0.020287   0.002602  -0.002955  -0.002559   0.392127  -0.020006
               7          8
     1  N   -0.021161  -0.020287
     2  H   -0.003026   0.002602
     3  H   -0.003215  -0.002955
     4  H    0.002741  -0.002559
     5  C    0.395117   0.392127
     6  H   -0.019600  -0.020006
     7  H    0.473040  -0.017285
     8  H   -0.017285   0.568311
 Mulliken charges:
               1
     1  N   -0.362017
     2  H    0.343434
     3  H    0.367523
     4  H    0.345480
     5  C   -0.158335
     6  H    0.170474
     7  H    0.193390
     8  H    0.100051
 Sum of Mulliken charges =   1.00000
 Mulliken charges with hydrogens summed into heavy atoms:
               1
     1  N    0.694420
     5  C    0.305580
 Electronic spatial extent (au):  <R**2>=         680187.9197
 Charge=              1.0000 electrons
 Dipole moment (field-independent basis, Debye):
    X=            229.3976    Y=            410.9183    Z=            149.9769  Tot=            493.9334
 Quadrupole moment (field-independent basis, Debye-Ang):
   XX=          10945.6773   YY=          35144.2468   ZZ=           4672.9286
   XY=          19625.3410   XZ=           7162.4872   YZ=          12830.0895
 Traceless Quadrupole moment (field-independent basis, Debye-Ang):
   XX=          -5975.2736   YY=          18223.2959   ZZ=         -12248.0222
   XY=          19625.3410   XZ=           7162.4872   YZ=          12830.0895
 Octapole moment (field-independent basis, Debye-Ang**2):
  XXX=         521786.9892  YYY=        3004886.3582  ZZZ=         145262.7225  XYY=        1678494.3106
  XXY=         936431.6857  XXZ=         341735.0047  XZZ=         223156.6920  YZZ=         399738.4257
  YYZ=        1097251.2460  XYZ=         612735.7280
 Hexadecapole moment (field-independent basis, Debye-Ang**3):
 XXXX=       24850787.2559 YYYY=      256848855.0307 ZZZZ=        4504355.8907 XXXY=       44640914.0837
 XXXZ=       16289290.0956 YYYX=      143515125.5260 YYYZ=       93811158.2772 ZZZX=        6936753.6819
 ZZZY=       12425774.3590 XXYY=       80091012.7358 XXZZ=       10646467.3403 YYZZ=       34184578.8767
 XXYZ=       29235072.8152 YYXZ=       52402715.3138 ZZXY=       19089784.3672
 N-N= 4.715927691315D+01 E-N=-3.101331158238D+02  KE= 9.288439079907D+01
 Orbital energies and kinetic energies (alpha):
                                 1                 2
   1         O               -14.230514         21.624521
   2         O                -9.983932         15.565516
   3         O                -1.106772          1.746643
   4         O                -0.818315          1.434950
   5         O                -0.720479          1.227502
   6         O                -0.701318          1.231494
   7         O                -0.605680          1.377753
   8         O                -0.530496          1.103673
   9         O                -0.511799          1.130144
  10         V                 0.048584          2.848561
  11         V                 0.071895          2.506538
  12         V                 0.083205          2.445113
  13         V                 0.099150          2.277610
  14         V                 0.224132          2.376801
  15         V                 0.268891          2.264366
  16         V                 0.326026          2.699853
 Total kinetic energy from orbitals= 9.288439079907D+01
 No NMR shielding tensors so no spin-rotation constants.
 Leave Link  601 at Mon Mar 11 07:11:56 2024, MaxMem=   131072000 cpu:               0.1 elap:               0.1
 (Enter /trinity/shared/software/gaussian/g16_A03/g16/l602.exe)
 FitSet:  NAtFit=     8 NAtPot=     8 NAtFrz=     0 MDM=    12 TotChg=   1.00000
 Merz-Kollman atomic radii used.

 **********************************************************************

            Electrostatic Properties Using The SCF Density

 **********************************************************************

       Atomic Center    1 is at  47.866625 85.615665 31.121175
       Atomic Center    2 is at  47.700357 84.864013 30.463985
       Atomic Center    3 is at  47.200430 86.373176 30.900022
       Atomic Center    4 is at  48.801581 85.962344 31.057568
       Atomic Center    5 is at  47.577626 85.167681 32.473319
       Atomic Center    6 is at  48.213135 84.384318 32.675442
       Atomic Center    7 is at  46.609783 84.803884 32.500511
       Atomic Center    8 is at  47.706655 85.951678 33.181695
      Read-in Center  461 is at  46.949938 86.436530 34.367085
      Read-in Center  462 is at  48.860438 87.007019 33.337963
      Read-in Center  463 is at  49.520360 86.781489 32.620758
      Read-in Center  464 is at  49.138831 88.152661 34.200512
      Read-in Center  465 is at  49.290379 87.768542 35.138427
      Read-in Center  466 is at  50.372754 88.896846 33.756392
      Read-in Center  467 is at  50.571811 89.647544 34.396751
      Read-in Center  468 is at  51.166903 88.264708 33.740154
      Read-in Center  469 is at  50.181515 89.418043 32.495450
      Read-in Center  470 is at  50.951433 89.891871 32.219827
      Read-in Center  471 is at  47.958409 89.069614 34.266369
      Read-in Center  472 is at  47.686300 89.603472 33.335100
      Read-in Center  473 is at  47.290000 89.260000 35.250000
      Read-in Center  474 is at  46.542885 86.521664 34.820168
      Read-in Center  475 is at  47.356992 86.351396 33.914001
      Read-in Center  476 is at  49.401225 87.370034 33.274648
      Read-in Center  477 is at  48.319651 86.644004 33.401277
     452 points will be used for fitting atomic charges
 Fitting point charges to electrostatic potential
 Charges from ESP fit, RMS=   0.00175 RRMS=   0.01019:
 ESP charges:
               1
     1  N   -0.185496
     2  H    0.304864
     3  H    0.326102
     4  H    0.302484
     5  C    0.004555
     6  H    0.087527
     7  H    0.113511
     8  H    0.046454
 Sum of ESP charges =   1.00000
 ESP charges with hydrogens summed into heavy atoms:
               1
     1  N    0.747953
     5  C    0.252047
 Charge=   1.00000 Dipole=   229.4030   410.9240   149.9750 Tot=   493.9401
 -----------------------------------------------------------------

              Electrostatic Properties (Atomic Units)

 -----------------------------------------------------------------
    Center     Electric         -------- Electric Field --------
               Potential          X             Y             Z
 -----------------------------------------------------------------
    1 Atom    -17.580543     -0.004592     -0.005308      0.020741
    2 Atom     -0.657041     -0.007322     -0.065189     -0.056842
    3 Atom     -0.644546     -0.033053      0.045428     -0.015506
    4 Atom     -0.657780      0.096225      0.032783     -0.008214
    5 Atom    -14.220952     -0.005586     -0.013711      0.055090
    6 Atom     -0.850707      0.067305     -0.083003      0.042988
    7 Atom     -0.828564     -0.092547     -0.034624      0.022489
    8 Atom     -0.899443      0.011213      0.059839      0.070726
  461           0.160223     -0.011375      0.008372      0.026508
  462           0.182911      0.015638      0.017613      0.021377
  463           0.199494      0.022377      0.017430      0.025940
  464           0.124691      0.005164      0.009621      0.010677
  465           0.110465      0.004099      0.005763      0.009862
  466           0.106218      0.005774      0.007535      0.005862
  467           0.089257      0.003725      0.005485      0.004308
  468           0.104588      0.007221      0.005836      0.005630
  469           0.111264      0.006092      0.010068      0.003590
  470           0.096528      0.005327      0.007413      0.001858
  471           0.112415      0.000560      0.009495      0.008051
  472           0.114514     -0.000157      0.011359      0.006093
  473           0.095673     -0.000768      0.006206      0.006606
  474           0.135194     -0.006635      0.004970      0.016537
  475           0.222191     -0.043731      0.044949      0.096843
  476           0.160950      0.012295      0.013839      0.016144
  477           0.229635      0.057346      0.063238      0.038070
 -----------------------------------------------------------------
 Leave Link  602 at Mon Mar 11 07:11:56 2024, MaxMem=   131072000 cpu:               0.0 elap:               0.1
 (Enter /trinity/shared/software/gaussian/g16_A03/g16/l701.exe)
 ... and contract with generalized density number  0.
 Compute integral first derivatives.
 Leave Link  701 at Mon Mar 11 07:11:57 2024, MaxMem=   131072000 cpu:               0.1 elap:               0.1
 (Enter /trinity/shared/software/gaussian/g16_A03/g16/l702.exe)
 L702 exits ... SP integral derivatives will be done elsewhere.
 Leave Link  702 at Mon Mar 11 07:11:57 2024, MaxMem=   131072000 cpu:               0.0 elap:               0.0
 (Enter /trinity/shared/software/gaussian/g16_A03/g16/l703.exe)
 Integral derivatives from FoFJK, PRISM(SPDF).
 Compute integral first derivatives, UseDBF=F ICtDFT=           0.
 Calling FoFJK, ICntrl=      2527 FMM=F ISym2X=0 I1Cent= 0 IOpClX= 0 NMat=1 NMatS=1 NMatT=0.
 FoFJK:  IHMeth= 1 ICntrl=    2527 DoSepK=F KAlg= 0 I1Cent=           0 FoldK=F
 IRaf=         0 NMat=       1 IRICut=       1 DoRegI=T DoRafI=F ISym2E= 0 IDoP0=0 IntGTp=1.
 FoFCou: FMM=F IPFlag=           0 FMFlag=      100000 FMFlg1=         800
         NFxFlg=           0 DoJE=F BraDBF=F KetDBF=F FulRan=T
         wScrn=  0.000000 ICntrl=      2527 IOpCl=  0 I1Cent=           0 NGrid=           0
         NMat0=    1 NMatS0=      1 NMatT0=    0 NMatD0=    1 NMtDS0=    0 NMtDT0=    0
 Symmetry not used in FoFCou.
 Leave Link  703 at Mon Mar 11 07:11:57 2024, MaxMem=   131072000 cpu:               0.7 elap:               0.7
 (Enter /trinity/shared/software/gaussian/g16_A03/g16/l716.exe)
 Dipole        = 9.02519644D+01 1.61667719D+02 5.90054676D+01
 -------------------------------------------------------------------
 Center     Atomic                   Forces (Hartrees/Bohr)
 Number     Number              X              Y              Z
 -------------------------------------------------------------------
      1        7          -0.035801205    0.020293290   -0.001227234
      2        1          -0.003010287   -0.039095789   -0.038814830
      3        1          -0.017462839    0.032846395   -0.013013053
      4        1           0.064507840    0.026094024   -0.015452716
      5        6           0.004827744    0.014991057    0.019963262
      6        1           0.049711028   -0.056993926    0.021950086
      7        1          -0.069168978   -0.017984297    0.007559496
      8        1          -0.004183132    0.004157490   -0.001189352
 -------------------------------------------------------------------
 Cartesian Forces:  Max     0.069168978 RMS     0.031239867
 Force constants in Cartesian coordinates: 
                1             2             3             4             5 
      1  0.921973D+00
      2  0.317769D-01  0.873954D+00
      3  0.107126D-01  0.421192D-01  0.821515D+00
      4 -0.432719D-01 -0.389752D-01 -0.301443D-01  0.217204D+00
      5 -0.419486D-01 -0.212571D+00 -0.165270D+00  0.392037D-01  0.381760D+00
      6 -0.396004D-01 -0.198065D+00 -0.208165D+00  0.429327D-01  0.165538D+00
      7 -0.158567D+00  0.146562D+00 -0.457490D-01  0.597450D-01 -0.373732D-02
      8  0.159181D+00 -0.214109D+00  0.572809D-01 -0.779131D-02  0.726211D-01
      9 -0.689914D-01  0.796049D-01 -0.510601D-01 -0.721322D-02  0.266781D-01
     10 -0.366383D+00 -0.125207D+00  0.286285D-01  0.648966D-01  0.278525D-02
     11 -0.134297D+00 -0.833945D-01  0.869833D-02  0.126190D-01  0.650919D-01
     12  0.599998D-01  0.194536D-01 -0.408668D-01  0.219678D-01  0.195221D-01
     13 -0.864106D-01 -0.184969D-01  0.481250D-01  0.219233D-01  0.377148D-02
     14 -0.187051D-01 -0.100747D+00  0.731023D-01  0.460070D-02  0.308084D-01
     15  0.472093D-01  0.707010D-01 -0.301921D+00 -0.240946D-02 -0.301708D-02
     16  0.257717D-01 -0.199980D-02 -0.472206D-02  0.371227D-01 -0.438426D-02
     17 -0.776314D-03  0.256125D-01 -0.587204D-02  0.228965D-01  0.127213D-02
     18 -0.798728D-02 -0.168408D-02  0.404219D-01  0.293045D-01 -0.447176D-01
     19  0.262905D-01  0.333329D-02 -0.272185D-02  0.299077D-01 -0.213878D-02
     20  0.155233D-02  0.216907D-01 -0.646710D-02 -0.385076D-01  0.188054D-01
     21  0.292573D-02 -0.439112D-02  0.412316D-01 -0.518630D-01 -0.230995D-01
     22  0.208305D-01  0.300582D-02 -0.412901D-02 -0.472942D-01  0.644857D-02
     23  0.321741D-02  0.297979D-01 -0.359135D-02  0.595432D-02 -0.175547D-01
     24 -0.426843D-02 -0.773878D-02  0.390766D-01 -0.257502D-02  0.243665D-01
                6             7             8             9            10 
      6  0.281782D+00
      7  0.482167D-02  0.328184D+00
      8 -0.666845D-02 -0.138623D+00  0.349513D+00
      9  0.393176D-01  0.434644D-01 -0.204907D-01  0.164717D+00
     10 -0.369437D-02  0.755279D-01  0.513425D-02 -0.698590D-02  0.501133D+00
     11 -0.672567D-03 -0.203279D-01  0.545806D-01  0.909237D-02  0.103246D+00
     12  0.441703D-01  0.187368D-01  0.522904D-02  0.422983D-01 -0.175074D-02
     13 -0.522221D-02  0.259658D-01 -0.638239D-03 -0.848540D-02  0.267803D-01
     14 -0.961854D-02 -0.312668D-02  0.244826D-01 -0.233840D-02  0.274395D-02
     15  0.381993D-01 -0.409392D-02 -0.601263D-02  0.397798D-01 -0.208902D-02
     16  0.177568D-02 -0.251154D-01 -0.270954D-01  0.870161D-02 -0.175371D-02
     17  0.161540D-01 -0.260125D-01 -0.859106D-03 -0.328047D-01 -0.139872D-01
     18  0.600046D-01  0.900148D-02 -0.341362D-01 -0.135917D-04  0.937533D-02
     19  0.934126D-03 -0.143141D-02 -0.148184D-01  0.871578D-02  0.126473D-01
     20  0.962741D-02  0.491578D-01  0.548867D-01 -0.143553D-01  0.270489D-01
     21  0.520072D-01 -0.277290D-01 -0.128367D-01  0.442086D-01 -0.241590D-01
     22 -0.194722D-02  0.359236D-01  0.246518D-01  0.307941D-01  0.273849D-01
     23  0.237051D-01 -0.389265D-02 -0.882234D-03 -0.453863D-01 -0.176507D-02
     24  0.329166D-01  0.154746D-02  0.176348D-01  0.609857D-01  0.675221D-03
               11            12            13            14            15 
     11  0.244011D+00
     12  0.130951D-01  0.163821D+00
     13  0.133537D-02  0.406741D-02  0.842769D+00
     14  0.228799D-01 -0.395502D-02 -0.537183D-02  0.833663D+00
     15 -0.632733D-02  0.425525D-01  0.884160D-02  0.219444D-01  0.783501D+00
     16  0.499782D-01 -0.267675D-01 -0.146762D+00  0.149440D+00 -0.432098D-01
     17  0.535114D-01 -0.121696D-01  0.163650D+00 -0.232107D+00  0.535305D-01
     18 -0.160859D-01  0.439392D-01 -0.638857D-01  0.742687D-01 -0.512344D-01
     19  0.278642D-01 -0.225978D-01 -0.316234D+00 -0.109806D+00  0.137409D-01
     20 -0.320731D-01 -0.177529D-01 -0.121304D+00 -0.737249D-01  0.153638D-02
     21 -0.186493D-01 -0.760195D-02  0.427829D-01  0.119339D-01 -0.314570D-01
     22 -0.404181D-01 -0.536558D-01 -0.277976D-01 -0.197754D-01 -0.179896D-01
     23  0.156262D-01 -0.234223D-01 -0.229459D-01 -0.165021D+00 -0.132355D+00
     24  0.108493D-01  0.519208D-01 -0.262236D-01 -0.165337D+00 -0.179187D+00
               16            17            18            19            20 
     16  0.318814D+00
     17 -0.140539D+00  0.366024D+00
     18  0.400417D-01 -0.172793D-01  0.166009D+00
     19  0.758338D-01  0.624618D-02 -0.687504D-02  0.450075D+00
     20 -0.221089D-01  0.520584D-01  0.103612D-01  0.863435D-01  0.233828D+00
     21  0.193030D-01  0.659127D-02  0.424236D-01  0.121476D-01  0.196797D-01
     22  0.563221D-01 -0.114778D-01 -0.897494D-02  0.631448D-01  0.178183D-01
     23 -0.329095D-02  0.747205D-01  0.292732D-01  0.297609D-02  0.647627D-01
     24  0.487727D-02 -0.815017D-02  0.386827D-01 -0.334367D-02 -0.262941D-02
               21            22            23            24 
     21  0.157914D+00
     22  0.265917D-01  0.211719D+00
     23  0.207718D-01  0.197467D-01  0.338784D+00
     24  0.415068D-01  0.293108D-01  0.131005D+00  0.254331D+00
 Leave Link  716 at Mon Mar 11 07:11:58 2024, MaxMem=   131072000 cpu:               0.0 elap:               0.0
 (Enter /trinity/shared/software/gaussian/g16_A03/g16/l103.exe)

 GradGradGradGradGradGradGradGradGradGradGradGradGradGradGradGradGradGrad
 Berny optimization.
 Search for a local minimum.
 Step number   1 out of a maximum of    2
 All quantities printed in internal units (Hartrees-Bohrs-Radians)
 Second derivative matrix not updated -- first step.
 ITU=  0
     Eigenvalues ---    0.01758   0.04842   0.04950   0.06373   0.09496
     Eigenvalues ---    0.09621   0.15903   0.16063   0.17693   0.17957
     Eigenvalues ---    0.23142   0.35741   0.62389   0.95271   0.98074
     Eigenvalues ---    1.11550   1.17827   1.22856
 Quadratic step=6.313D-01 exceeds max=3.000D-01 adjusted using Lamda=-1.592D-01.
 Angle between NR and scaled steps=  23.79 degrees.
 Angle between quadratic step and forces=  25.41 degrees.
 Linear search not attempted -- first point.
 Variable       Old X    -DE/DX   Delta X   Delta X   Delta X     New X
                                 (Linear)    (Quad)   (Total)
    X1       90.45481  -0.03580   0.00000  -0.00889  -0.00889  90.44593
    Y1      161.79016   0.02029   0.00000   0.03244   0.03244 161.82259
    Z1       58.81050  -0.00123   0.00000  -0.03031  -0.03031  58.78019
    X2       90.14061  -0.00301   0.00000   0.00579   0.00579  90.14640
    Y2      160.36974  -0.03910   0.00000  -0.05469  -0.05469 160.31506
    Z2       57.56859  -0.03881   0.00000  -0.07036  -0.07036  57.49823
    X3       89.19589  -0.01746   0.00000  -0.02198  -0.02198  89.17390
    Y3      163.22165   0.03285   0.00000   0.08760   0.08760 163.30925
    Z3       58.39258  -0.01301   0.00000  -0.05229  -0.05229  58.34029
    X4       92.22162   0.06451   0.00000   0.10036   0.10036  92.32199
    Y4      162.44529   0.02609   0.00000   0.05154   0.05154 162.49682
    Z4       58.69030  -0.01545   0.00000  -0.05842  -0.05842  58.63188
    X5       89.90868   0.00483   0.00000  -0.00435  -0.00435  89.90434
    Y5      160.94359   0.01499   0.00000  -0.03223  -0.03223 160.91136
    Z5       61.36568   0.01996   0.00000   0.04536   0.04536  61.41104
    X6       91.10962   0.04971   0.00000   0.09606   0.09606  91.20568
    Y6      159.46325  -0.05699   0.00000  -0.09918  -0.09918 159.36407
    Z6       61.74764   0.02195   0.00000   0.09380   0.09380  61.84143
    X7       88.07972  -0.06917   0.00000  -0.13298  -0.13298  87.94675
    Y7      160.25612  -0.01798   0.00000  -0.01615  -0.01615 160.23996
    Z7       61.41706   0.00756   0.00000   0.05846   0.05846  61.47552
    X8       90.15251  -0.00418   0.00000  -0.01309  -0.01309  90.13942
    Y8      162.42513   0.00416   0.00000   0.02401   0.02401 162.44914
    Z8       62.70432  -0.00119   0.00000  -0.00211  -0.00211  62.70221
         Item               Value     Threshold  Converged?
 Maximum Force            0.069169     0.000450     NO 
 RMS     Force            0.031240     0.000300     NO 
 Maximum Displacement     0.132976     0.001800     NO 
 RMS     Displacement     0.061287     0.001200     NO 
 Predicted change in Energy=-2.792888D-02
 GradGradGradGradGradGradGradGradGradGradGradGradGradGradGradGradGradGrad

 Leave Link  103 at Mon Mar 11 07:11:58 2024, MaxMem=   131072000 cpu:               0.0 elap:               0.0
 (Enter /trinity/shared/software/gaussian/g16_A03/g16/l9999.exe)

 Test job not archived.
 1\1\GINC-C097\Force\RBP86\STO-3G\C1H6N1(1+)\JANSEA92\11-Mar-2024\0\\#P
  BP86/STO-3G guess=read nosymm gfinput gfprint force charge guess=huck
 el punch=derivatives iop(3/33=1,6/7=3) prop(field,read) pop=esp\\QM pa
 rt of step 2\\1,1\N,47.866625,85.615665,31.121175\H,47.700357,84.86401
 3,30.463985\H,47.20043,86.373176,30.900022\H,48.801581,85.962344,31.05
 7568\C,47.577626,85.167681,32.473319\H,48.213135,84.384318,32.675442\H
 ,46.609783,84.803884,32.500511\H,47.706655,85.951678,33.181695\\Versio
 n=ES64L-G16RevA.03\HF=-95.7744606\RMSD=4.002e-09\RMSF=3.124e-02\Dipole
 =0.0658719,0.2796225,-1.0149555\Quadrupole=-4442.4694911,13548.5738384
 ,-9106.1043472,14590.9600448,5325.1336797,9538.8571015\PG=C01 [X(C1H6N
 1)]\\@


 The mind is not a vessel to be filled but a fire to be kindled.
                                  -- Plutarch
 Job cpu time:       0 days  0 hours  0 minutes  4.3 seconds.
 Elapsed time:       0 days  0 hours  0 minutes  4.6 seconds.
 File lengths (MBytes):  RWF=     17 Int=      0 D2E=      0 Chk=      2 Scr=      2
 Normal termination of Gaussian 16 at Mon Mar 11 07:11:58 2024.
